[0] MPI startup(): Intel(R) MPI Library, Version 2021.10  Build 20230619 (id: c2e19c2f3e)
[0] MPI startup(): Copyright (C) 2003-2023 Intel Corporation.  All rights reserved.
[0] MPI startup(): library kind: release
[0] MPI startup(): libfabric version: 1.18.0-impi
[0] MPI startup(): libfabric provider: mlx
[0] MPI startup(): Load tuning file: "/leonardo/prod/spack/05/install/0.21/linux-rhel8-icelake/gcc-8.5.0/intel-oneapi-mpi-2021.10.0-6ff7efudnkj4xa7o4j67mxatygwzfwqc/mpi/2021.10.0/etc/tuning_icx_shm-ofi_mlx_100.dat"
[0] MPI startup(): Rank    Pid      Node name                Pin cpu
[0] MPI startup(): 0       815354   lrdn0645.leonardo.local  {4}
[0] MPI startup(): 1       815355   lrdn0645.leonardo.local  {5}
[0] MPI startup(): 2       815356   lrdn0645.leonardo.local  {6}
[0] MPI startup(): 3       815357   lrdn0645.leonardo.local  {7}
[0] MPI startup(): 4       815358   lrdn0645.leonardo.local  {8}
[0] MPI startup(): 5       815359   lrdn0645.leonardo.local  {9}
[0] MPI startup(): 6       815360   lrdn0645.leonardo.local  {10}
[0] MPI startup(): 7       815361   lrdn0645.leonardo.local  {11}
[0] MPI startup(): 8       815362   lrdn0645.leonardo.local  {12}
[0] MPI startup(): 9       815363   lrdn0645.leonardo.local  {13}
[0] MPI startup(): 10      815364   lrdn0645.leonardo.local  {14}
[0] MPI startup(): 11      815365   lrdn0645.leonardo.local  {15}
[0] MPI startup(): 12      815366   lrdn0645.leonardo.local  {16}
[0] MPI startup(): 13      815367   lrdn0645.leonardo.local  {17}
[0] MPI startup(): 14      815368   lrdn0645.leonardo.local  {18}
[0] MPI startup(): 15      815369   lrdn0645.leonardo.local  {19}
[0] MPI startup(): I_MPI_ROOT=/leonardo/prod/spack/05/install/0.21/linux-rhel8-icelake/gcc-8.5.0/intel-oneapi-mpi-2021.10.0-6ff7efudnkj4xa7o4j67mxatygwzfwqc/mpi/2021.10.0
[0] MPI startup(): I_MPI_MPIRUN=mpirun
[0] MPI startup(): I_MPI_BIND_WIN_ALLOCATE=localalloc
[0] MPI startup(): I_MPI_HYDRA_TOPOLIB=hwloc
[0] MPI startup(): I_MPI_JOB_RESPECT_PROCESS_PLACEMENT=0
[0] MPI startup(): I_MPI_HYDRA_BOOTSTRAP=slurm
[0] MPI startup(): I_MPI_RETURN_WIN_MEM_NUMA=0
[0] MPI startup(): I_MPI_PIN_CELL=core
[0] MPI startup(): I_MPI_PIN_DOMAIN=omp
[0] MPI startup(): I_MPI_INTERNAL_MEM_POLICY=default
[0] MPI startup(): I_MPI_DEBUG=5

     Program PWSCF v.7.2 starts on 11Mar2024 at  8:22:29 
        Git branch: HEAD
        Last git commit: b4c5e8deeb7d1863e7553a87b45f8d22c21926a5
        Last git commit date: Mon Mar 27 16:12:09 2023 +0000
        Last git commit subject: Merge branch 'merge_fix_hubbard' into 'develop'

     This program is part of the open-source Quantum ESPRESSO suite
     for quantum simulation of materials; please cite
         "P. Giannozzi et al., J. Phys.:Condens. Matter 21 395502 (2009);
         "P. Giannozzi et al., J. Phys.:Condens. Matter 29 465901 (2017);
         "P. Giannozzi et al., J. Chem. Phys. 152 154105 (2020);
          URL http://www.quantum-espresso.org", 
     in publications or presentations arising from this work. More details at
     http://www.quantum-espresso.org/quote

     Parallel version (MPI & OpenMP), running on      16 processor cores
     Number of MPI processes:                16
     Threads/MPI process:                     1

     MPI processes distributed on     1 nodes
     462271 MiB available memory on the printing compute node when the environment starts
 
     Reading input from pw.Fe.scf.in

     Current dimensions of program PWSCF are:
     Max number of different atomic species (ntypx) = 10
     Max number of k-points (npk) =  40000
     Max angular momentum in pseudopotentials (lmaxx) =  4
 
     K-points division:     npool     =      16
     Subspace diagonalization in iterative solution of the eigenvalue problem:
     a serial algorithm will be used

 
     G-vector sticks info
     --------------------
     sticks:   dense  smooth     PW     G-vecs:    dense   smooth      PW
     Sum         265     265     99                 2731     2731     675
 
     Using Slab Decomposition
 


     bravais-lattice index     =            3
     lattice parameter (alat)  =       5.4060  a.u.
     unit-cell volume          =      78.9947 (a.u.)^3
     number of atoms/cell      =            1
     number of atomic types    =            1
     number of electrons       =         8.00
     number of Kohn-Sham states=           16
     kinetic-energy cutoff     =      40.0000  Ry
     charge density cutoff     =     160.0000  Ry
     scf convergence threshold =      1.0E-09
     mixing beta               =       0.3000
     number of iterations used =            8  plain     mixing
     Exchange-correlation= LDA
                           (   1   1   0   0   0   0   0)
     Noncollinear calculation without spin-orbit


     celldm(1)=   5.406000  celldm(2)=   0.000000  celldm(3)=   0.000000
     celldm(4)=   0.000000  celldm(5)=   0.000000  celldm(6)=   0.000000

     crystal axes: (cart. coord. in units of alat)
               a(1) = (   0.500000   0.500000   0.500000 )  
               a(2) = (  -0.500000   0.500000   0.500000 )  
               a(3) = (  -0.500000  -0.500000   0.500000 )  

     reciprocal axes: (cart. coord. in units 2 pi/alat)
               b(1) = (  1.000000  0.000000  1.000000 )  
               b(2) = ( -1.000000  1.000000  0.000000 )  
               b(3) = (  0.000000 -1.000000  1.000000 )  


     PseudoPot. # 1 for Fe read from file:
     ../../pseudo/Fe.pz-n-nc.UPF
     MD5 check sum: b53d05d746dd35482e835e46ea0c6b54
     Pseudo is Norm-conserving + core correction, Zval =  8.0
     Generated using "atomic" code by A. Dal Corso  v.5.0.99 svn rev. 10869
     Using radial grid of 1191 points,  2 beta functions with: 
                l(1) =   1
                l(2) =   2

     atomic species   valence    mass     pseudopotential
        Fe             8.00    55.85000     Fe( 1.00)

     No symmetry found


                                    s                        frac. trans.

      isym =  1     identity                                     

 Time Reversal            0
 cryst.   s( 1) = (     1          0          0      )
                  (     0          1          0      )
                  (     0          0          1      )

 cart.    s( 1) = (  1.0000000  0.0000000  0.0000000 )
                  (  0.0000000  1.0000000  0.0000000 )
                  (  0.0000000  0.0000000  1.0000000 )


     the magnetic double point group is C_1 (1)     [C_1 (1)    ]
     using the double point group C_1 (1)    
     there are  2 classes and  1 irreducible representations
     the character table:

       E     -E   
                  
G_2    1.00 -1.00

     the symmetry operations in each class and the name of the first element:

     E             1
          identity                                               
     -E           -1
          identity E                                             

   Cartesian axes

     site n.     atom                  positions (alat units)
         1           Fe  tau(   1) = (   0.0000000   0.0000000   0.0000000  )

   Crystallographic axes

     site n.     atom                  positions (cryst. coord.)
         1           Fe  tau(   1) = (  0.0000000  0.0000000  0.0000000  )

     number of k points=    64  Gaussian smearing, width (Ry)=  0.0100
                       cart. coord. in units 2pi/alat
        k(    1) = (   0.0000000   0.0000000   0.0000000), wk =   0.0156250
        k(    2) = (   0.0000000  -0.2500000   0.2500000), wk =   0.0156250
        k(    3) = (   0.0000000   0.5000000  -0.5000000), wk =   0.0156250
        k(    4) = (   0.0000000   0.2500000  -0.2500000), wk =   0.0156250
        k(    5) = (  -0.2500000   0.2500000   0.0000000), wk =   0.0156250
        k(    6) = (  -0.2500000   0.0000000   0.2500000), wk =   0.0156250
        k(    7) = (  -0.2500000   0.7500000  -0.5000000), wk =   0.0156250
        k(    8) = (  -0.2500000   0.5000000  -0.2500000), wk =   0.0156250
        k(    9) = (   0.5000000  -0.5000000   0.0000000), wk =   0.0156250
        k(   10) = (   0.5000000  -0.7500000   0.2500000), wk =   0.0156250
        k(   11) = (   0.5000000   0.0000000  -0.5000000), wk =   0.0156250
        k(   12) = (   0.5000000  -0.2500000  -0.2500000), wk =   0.0156250
        k(   13) = (   0.2500000  -0.2500000   0.0000000), wk =   0.0156250
        k(   14) = (   0.2500000  -0.5000000   0.2500000), wk =   0.0156250
        k(   15) = (   0.2500000   0.2500000  -0.5000000), wk =   0.0156250
        k(   16) = (   0.2500000   0.0000000  -0.2500000), wk =   0.0156250
        k(   17) = (   0.2500000   0.0000000   0.2500000), wk =   0.0156250
        k(   18) = (   0.2500000  -0.2500000   0.5000000), wk =   0.0156250
        k(   19) = (   0.2500000   0.5000000  -0.2500000), wk =   0.0156250
        k(   20) = (   0.2500000   0.2500000   0.0000000), wk =   0.0156250
        k(   21) = (   0.0000000   0.2500000   0.2500000), wk =   0.0156250
        k(   22) = (   0.0000000   0.0000000   0.5000000), wk =   0.0156250
        k(   23) = (   0.0000000   0.7500000  -0.2500000), wk =   0.0156250
        k(   24) = (   0.0000000   0.5000000   0.0000000), wk =   0.0156250
        k(   25) = (   0.7500000  -0.5000000   0.2500000), wk =   0.0156250
        k(   26) = (   0.7500000  -0.7500000   0.5000000), wk =   0.0156250
        k(   27) = (   0.7500000   0.0000000  -0.2500000), wk =   0.0156250
        k(   28) = (   0.7500000  -0.2500000   0.0000000), wk =   0.0156250
        k(   29) = (   0.5000000  -0.2500000   0.2500000), wk =   0.0156250
        k(   30) = (   0.5000000  -0.5000000   0.5000000), wk =   0.0156250
        k(   31) = (   0.5000000   0.2500000  -0.2500000), wk =   0.0156250
        k(   32) = (   0.5000000   0.0000000   0.0000000), wk =   0.0156250
        k(   33) = (  -0.5000000   0.0000000  -0.5000000), wk =   0.0156250
        k(   34) = (  -0.5000000  -0.2500000  -0.2500000), wk =   0.0156250
        k(   35) = (  -0.5000000   0.5000000  -1.0000000), wk =   0.0156250
        k(   36) = (  -0.5000000   0.2500000  -0.7500000), wk =   0.0156250
        k(   37) = (  -0.7500000   0.2500000  -0.5000000), wk =   0.0156250
        k(   38) = (  -0.7500000   0.0000000  -0.2500000), wk =   0.0156250
        k(   39) = (  -0.7500000   0.7500000  -1.0000000), wk =   0.0156250
        k(   40) = (  -0.7500000   0.5000000  -0.7500000), wk =   0.0156250
        k(   41) = (   0.0000000  -0.5000000  -0.5000000), wk =   0.0156250
        k(   42) = (   0.0000000  -0.7500000  -0.2500000), wk =   0.0156250
        k(   43) = (   0.0000000   0.0000000  -1.0000000), wk =   0.0156250
        k(   44) = (   0.0000000  -0.2500000  -0.7500000), wk =   0.0156250
        k(   45) = (  -0.2500000  -0.2500000  -0.5000000), wk =   0.0156250
        k(   46) = (  -0.2500000  -0.5000000  -0.2500000), wk =   0.0156250
        k(   47) = (  -0.2500000   0.2500000  -1.0000000), wk =   0.0156250
        k(   48) = (  -0.2500000   0.0000000  -0.7500000), wk =   0.0156250
        k(   49) = (  -0.2500000   0.0000000  -0.2500000), wk =   0.0156250
        k(   50) = (  -0.2500000  -0.2500000   0.0000000), wk =   0.0156250
        k(   51) = (  -0.2500000   0.5000000  -0.7500000), wk =   0.0156250
        k(   52) = (  -0.2500000   0.2500000  -0.5000000), wk =   0.0156250
        k(   53) = (  -0.5000000   0.2500000  -0.2500000), wk =   0.0156250
        k(   54) = (  -0.5000000   0.0000000   0.0000000), wk =   0.0156250
        k(   55) = (  -0.5000000   0.7500000  -0.7500000), wk =   0.0156250
        k(   56) = (  -0.5000000   0.5000000  -0.5000000), wk =   0.0156250
        k(   57) = (   0.2500000  -0.5000000  -0.2500000), wk =   0.0156250
        k(   58) = (   0.2500000  -0.7500000   0.0000000), wk =   0.0156250
        k(   59) = (   0.2500000   0.0000000  -0.7500000), wk =   0.0156250
        k(   60) = (   0.2500000  -0.2500000  -0.5000000), wk =   0.0156250
        k(   61) = (   0.0000000  -0.2500000  -0.2500000), wk =   0.0156250
        k(   62) = (   0.0000000  -0.5000000   0.0000000), wk =   0.0156250
        k(   63) = (   0.0000000   0.2500000  -0.7500000), wk =   0.0156250
        k(   64) = (   0.0000000   0.0000000  -0.5000000), wk =   0.0156250

                       cryst. coord.
        k(    1) = (   0.0000000   0.0000000   0.0000000), wk =   0.0156250
        k(    2) = (   0.0000000   0.0000000   0.2500000), wk =   0.0156250
        k(    3) = (   0.0000000   0.0000000  -0.5000000), wk =   0.0156250
        k(    4) = (   0.0000000   0.0000000  -0.2500000), wk =   0.0156250
        k(    5) = (   0.0000000   0.2500000   0.0000000), wk =   0.0156250
        k(    6) = (   0.0000000   0.2500000   0.2500000), wk =   0.0156250
        k(    7) = (   0.0000000   0.2500000  -0.5000000), wk =   0.0156250
        k(    8) = (   0.0000000   0.2500000  -0.2500000), wk =   0.0156250
        k(    9) = (   0.0000000  -0.5000000   0.0000000), wk =   0.0156250
        k(   10) = (   0.0000000  -0.5000000   0.2500000), wk =   0.0156250
        k(   11) = (   0.0000000  -0.5000000  -0.5000000), wk =   0.0156250
        k(   12) = (   0.0000000  -0.5000000  -0.2500000), wk =   0.0156250
        k(   13) = (   0.0000000  -0.2500000   0.0000000), wk =   0.0156250
        k(   14) = (   0.0000000  -0.2500000   0.2500000), wk =   0.0156250
        k(   15) = (   0.0000000  -0.2500000  -0.5000000), wk =   0.0156250
        k(   16) = (   0.0000000  -0.2500000  -0.2500000), wk =   0.0156250
        k(   17) = (   0.2500000   0.0000000   0.0000000), wk =   0.0156250
        k(   18) = (   0.2500000   0.0000000   0.2500000), wk =   0.0156250
        k(   19) = (   0.2500000   0.0000000  -0.5000000), wk =   0.0156250
        k(   20) = (   0.2500000   0.0000000  -0.2500000), wk =   0.0156250
        k(   21) = (   0.2500000   0.2500000   0.0000000), wk =   0.0156250
        k(   22) = (   0.2500000   0.2500000   0.2500000), wk =   0.0156250
        k(   23) = (   0.2500000   0.2500000  -0.5000000), wk =   0.0156250
        k(   24) = (   0.2500000   0.2500000  -0.2500000), wk =   0.0156250
        k(   25) = (   0.2500000  -0.5000000   0.0000000), wk =   0.0156250
        k(   26) = (   0.2500000  -0.5000000   0.2500000), wk =   0.0156250
        k(   27) = (   0.2500000  -0.5000000  -0.5000000), wk =   0.0156250
        k(   28) = (   0.2500000  -0.5000000  -0.2500000), wk =   0.0156250
        k(   29) = (   0.2500000  -0.2500000   0.0000000), wk =   0.0156250
        k(   30) = (   0.2500000  -0.2500000   0.2500000), wk =   0.0156250
        k(   31) = (   0.2500000  -0.2500000  -0.5000000), wk =   0.0156250
        k(   32) = (   0.2500000  -0.2500000  -0.2500000), wk =   0.0156250
        k(   33) = (  -0.5000000   0.0000000   0.0000000), wk =   0.0156250
        k(   34) = (  -0.5000000   0.0000000   0.2500000), wk =   0.0156250
        k(   35) = (  -0.5000000   0.0000000  -0.5000000), wk =   0.0156250
        k(   36) = (  -0.5000000   0.0000000  -0.2500000), wk =   0.0156250
        k(   37) = (  -0.5000000   0.2500000   0.0000000), wk =   0.0156250
        k(   38) = (  -0.5000000   0.2500000   0.2500000), wk =   0.0156250
        k(   39) = (  -0.5000000   0.2500000  -0.5000000), wk =   0.0156250
        k(   40) = (  -0.5000000   0.2500000  -0.2500000), wk =   0.0156250
        k(   41) = (  -0.5000000  -0.5000000   0.0000000), wk =   0.0156250
        k(   42) = (  -0.5000000  -0.5000000   0.2500000), wk =   0.0156250
        k(   43) = (  -0.5000000  -0.5000000  -0.5000000), wk =   0.0156250
        k(   44) = (  -0.5000000  -0.5000000  -0.2500000), wk =   0.0156250
        k(   45) = (  -0.5000000  -0.2500000   0.0000000), wk =   0.0156250
        k(   46) = (  -0.5000000  -0.2500000   0.2500000), wk =   0.0156250
        k(   47) = (  -0.5000000  -0.2500000  -0.5000000), wk =   0.0156250
        k(   48) = (  -0.5000000  -0.2500000  -0.2500000), wk =   0.0156250
        k(   49) = (  -0.2500000   0.0000000   0.0000000), wk =   0.0156250
        k(   50) = (  -0.2500000   0.0000000   0.2500000), wk =   0.0156250
        k(   51) = (  -0.2500000   0.0000000  -0.5000000), wk =   0.0156250
        k(   52) = (  -0.2500000   0.0000000  -0.2500000), wk =   0.0156250
        k(   53) = (  -0.2500000   0.2500000   0.0000000), wk =   0.0156250
        k(   54) = (  -0.2500000   0.2500000   0.2500000), wk =   0.0156250
        k(   55) = (  -0.2500000   0.2500000  -0.5000000), wk =   0.0156250
        k(   56) = (  -0.2500000   0.2500000  -0.2500000), wk =   0.0156250
        k(   57) = (  -0.2500000  -0.5000000   0.0000000), wk =   0.0156250
        k(   58) = (  -0.2500000  -0.5000000   0.2500000), wk =   0.0156250
        k(   59) = (  -0.2500000  -0.5000000  -0.5000000), wk =   0.0156250
        k(   60) = (  -0.2500000  -0.5000000  -0.2500000), wk =   0.0156250
        k(   61) = (  -0.2500000  -0.2500000   0.0000000), wk =   0.0156250
        k(   62) = (  -0.2500000  -0.2500000   0.2500000), wk =   0.0156250
        k(   63) = (  -0.2500000  -0.2500000  -0.5000000), wk =   0.0156250
        k(   64) = (  -0.2500000  -0.2500000  -0.2500000), wk =   0.0156250

     Dense  grid:     2731 G-vectors     FFT dimensions: (  20,  20,  20)

     Dynamical RAM for                 wfc:       0.16 MB

     Dynamical RAM for     wfc (w. buffer):       0.82 MB

     Dynamical RAM for           str. fact:       0.04 MB

     Dynamical RAM for           local pot:       0.00 MB

     Dynamical RAM for          nlocal pot:       0.04 MB

     Dynamical RAM for                qrad:       0.15 MB

     Dynamical RAM for          rho,v,vnew:       1.23 MB

     Dynamical RAM for               rhoin:       0.41 MB

     Dynamical RAM for            rho*nmix:       2.67 MB

     Dynamical RAM for           G-vectors:       0.18 MB

     Dynamical RAM for          h,s,v(r/c):       0.05 MB

     Dynamical RAM for          <psi|beta>:       0.00 MB

     Dynamical RAM for                 psi:       0.33 MB

     Dynamical RAM for                hpsi:       0.33 MB

     Dynamical RAM for      wfcinit/wfcrot:       0.29 MB

     Estimated static dynamical RAM per process >       3.44 MB

     Estimated max dynamical RAM per process >       6.82 MB

     Estimated total dynamical RAM >      69.09 MB

     Check: negative core charge=   -0.000004
     Generating pointlists ...
     new r_m :   0.3572 (alat units)  1.9312 (a.u.) for type    1

     Initial potential from superposition of free atoms

     starting charge       7.9997, renormalised to       8.0000

 ==============================================================================
     atom number    1 relative position :    0.0000   0.0000   0.0000
     charge :     6.509738  (integrated on a sphere of radius 0.357)
     magnetization :          0.000000    0.000000    0.976461
     magnetization/charge:    0.000000    0.000000    0.150000
     polar coord.: r, theta, phi [deg] :     0.976461    0.000000  360.000000

 ==============================================================================
     Starting wfcs are   18 randomized atomic wfcs

     total cpu time spent up to now is        0.1 secs

     per-process dynamical memory:    40.9 Mb

     Self-consistent Calculation

     iteration #  1     ecut=    40.00 Ry     beta= 0.30
     Davidson diagonalization with overlap

---- Real-time Memory Report at c_bands before calling an iterative solver
           200 MiB given to the printing process from OS
            39 MiB allocation reported by mallinfo(arena+hblkhd)
        462038 MiB available memory on the node where the printing process lives
------------------
     ethr =  1.00E-02,  avg # of iterations =  3.2

     Threshold (ethr) on eigenvalues was too large:
     Diagonalizing with lowered threshold

     Davidson diagonalization with overlap

---- Real-time Memory Report at c_bands before calling an iterative solver
           204 MiB given to the printing process from OS
            39 MiB allocation reported by mallinfo(arena+hblkhd)
        462001 MiB available memory on the node where the printing process lives
------------------
     ethr =  9.55E-04,  avg # of iterations =  1.0

     total cpu time spent up to now is        0.2 secs

     total energy              =     -54.24945918 Ry
     estimated scf accuracy    <       0.08186759 Ry

     total magnetization       =    -0.00     0.00     1.43 Bohr mag/cell
     absolute magnetization    =     1.43 Bohr mag/cell

     iteration #  2     ecut=    40.00 Ry     beta= 0.30
     Davidson diagonalization with overlap

---- Real-time Memory Report at c_bands before calling an iterative solver
           207 MiB given to the printing process from OS
            39 MiB allocation reported by mallinfo(arena+hblkhd)
        461997 MiB available memory on the node where the printing process lives
------------------
     ethr =  1.02E-03,  avg # of iterations =  1.0

     total cpu time spent up to now is        0.2 secs

     total energy              =     -54.26429593 Ry
     estimated scf accuracy    <       0.01819098 Ry

     total magnetization       =     0.00     0.00     1.85 Bohr mag/cell
     absolute magnetization    =     1.85 Bohr mag/cell

     iteration #  3     ecut=    40.00 Ry     beta= 0.30
     Davidson diagonalization with overlap

---- Real-time Memory Report at c_bands before calling an iterative solver
           208 MiB given to the printing process from OS
            39 MiB allocation reported by mallinfo(arena+hblkhd)
        461991 MiB available memory on the node where the printing process lives
------------------
     ethr =  2.27E-04,  avg # of iterations =  1.1

     total cpu time spent up to now is        0.3 secs

     total energy              =     -54.27306984 Ry
     estimated scf accuracy    <       0.01114902 Ry

     total magnetization       =    -0.00    -0.00     1.98 Bohr mag/cell
     absolute magnetization    =     1.98 Bohr mag/cell

     iteration #  4     ecut=    40.00 Ry     beta= 0.30
     Davidson diagonalization with overlap

---- Real-time Memory Report at c_bands before calling an iterative solver
           208 MiB given to the printing process from OS
            39 MiB allocation reported by mallinfo(arena+hblkhd)
        461991 MiB available memory on the node where the printing process lives
------------------
     ethr =  1.39E-04,  avg # of iterations =  1.4

     total cpu time spent up to now is        0.3 secs

     total energy              =     -54.27488851 Ry
     estimated scf accuracy    <       0.00116233 Ry

     total magnetization       =    -0.00     0.00     2.05 Bohr mag/cell
     absolute magnetization    =     2.05 Bohr mag/cell

     iteration #  5     ecut=    40.00 Ry     beta= 0.30
     Davidson diagonalization with overlap

---- Real-time Memory Report at c_bands before calling an iterative solver
           209 MiB given to the printing process from OS
            39 MiB allocation reported by mallinfo(arena+hblkhd)
        461990 MiB available memory on the node where the printing process lives
------------------
     ethr =  1.45E-05,  avg # of iterations =  2.0

     total cpu time spent up to now is        0.4 secs

     total energy              =     -54.27503007 Ry
     estimated scf accuracy    <       0.00011730 Ry

     total magnetization       =    -0.00    -0.00     2.06 Bohr mag/cell
     absolute magnetization    =     2.06 Bohr mag/cell

     iteration #  6     ecut=    40.00 Ry     beta= 0.30
     Davidson diagonalization with overlap

---- Real-time Memory Report at c_bands before calling an iterative solver
           209 MiB given to the printing process from OS
            39 MiB allocation reported by mallinfo(arena+hblkhd)
        461990 MiB available memory on the node where the printing process lives
------------------
     ethr =  1.47E-06,  avg # of iterations =  3.0

     total cpu time spent up to now is        0.4 secs

     total energy              =     -54.27508197 Ry
     estimated scf accuracy    <       0.00005870 Ry

     total magnetization       =    -0.00    -0.00     2.05 Bohr mag/cell
     absolute magnetization    =     2.05 Bohr mag/cell

     iteration #  7     ecut=    40.00 Ry     beta= 0.30
     Davidson diagonalization with overlap

---- Real-time Memory Report at c_bands before calling an iterative solver
           209 MiB given to the printing process from OS
            39 MiB allocation reported by mallinfo(arena+hblkhd)
        461990 MiB available memory on the node where the printing process lives
------------------
     ethr =  7.34E-07,  avg # of iterations =  2.0

     total cpu time spent up to now is        0.4 secs

     total energy              =     -54.27510353 Ry
     estimated scf accuracy    <       0.00000164 Ry

     total magnetization       =    -0.00     0.00     2.05 Bohr mag/cell
     absolute magnetization    =     2.06 Bohr mag/cell

     iteration #  8     ecut=    40.00 Ry     beta= 0.30
     Davidson diagonalization with overlap

---- Real-time Memory Report at c_bands before calling an iterative solver
           210 MiB given to the printing process from OS
            39 MiB allocation reported by mallinfo(arena+hblkhd)
        461989 MiB available memory on the node where the printing process lives
------------------
     ethr =  2.05E-08,  avg # of iterations =  2.1

     total cpu time spent up to now is        0.5 secs

     total energy              =     -54.27510393 Ry
     estimated scf accuracy    <       0.00000074 Ry

     total magnetization       =    -0.00     0.00     2.05 Bohr mag/cell
     absolute magnetization    =     2.05 Bohr mag/cell

     iteration #  9     ecut=    40.00 Ry     beta= 0.30
     Davidson diagonalization with overlap

---- Real-time Memory Report at c_bands before calling an iterative solver
           210 MiB given to the printing process from OS
            39 MiB allocation reported by mallinfo(arena+hblkhd)
        461989 MiB available memory on the node where the printing process lives
------------------
     ethr =  9.23E-09,  avg # of iterations =  2.0

     total cpu time spent up to now is        0.5 secs

     total energy              =     -54.27510439 Ry
     estimated scf accuracy    <       0.00000076 Ry

     total magnetization       =    -0.00     0.00     2.05 Bohr mag/cell
     absolute magnetization    =     2.05 Bohr mag/cell

     iteration # 10     ecut=    40.00 Ry     beta= 0.30
     Davidson diagonalization with overlap

---- Real-time Memory Report at c_bands before calling an iterative solver
           210 MiB given to the printing process from OS
            39 MiB allocation reported by mallinfo(arena+hblkhd)
        461989 MiB available memory on the node where the printing process lives
------------------
     ethr =  9.23E-09,  avg # of iterations =  2.0

     total cpu time spent up to now is        0.6 secs

     total energy              =     -54.27510462 Ry
     estimated scf accuracy    <       0.00000003 Ry

     total magnetization       =    -0.00     0.00     2.05 Bohr mag/cell
     absolute magnetization    =     2.05 Bohr mag/cell

     iteration # 11     ecut=    40.00 Ry     beta= 0.30
     Davidson diagonalization with overlap

---- Real-time Memory Report at c_bands before calling an iterative solver
           210 MiB given to the printing process from OS
            39 MiB allocation reported by mallinfo(arena+hblkhd)
        461989 MiB available memory on the node where the printing process lives
------------------
     ethr =  4.01E-10,  avg # of iterations =  1.1

     total cpu time spent up to now is        0.6 secs

     total energy              =     -54.27510461 Ry
     estimated scf accuracy    <       0.00000002 Ry

     total magnetization       =    -0.00     0.00     2.05 Bohr mag/cell
     absolute magnetization    =     2.05 Bohr mag/cell

     iteration # 12     ecut=    40.00 Ry     beta= 0.30
     Davidson diagonalization with overlap

---- Real-time Memory Report at c_bands before calling an iterative solver
           210 MiB given to the printing process from OS
            39 MiB allocation reported by mallinfo(arena+hblkhd)
        461989 MiB available memory on the node where the printing process lives
------------------
     ethr =  2.89E-10,  avg # of iterations =  1.6

 ==============================================================================
     atom number    1 relative position :    0.0000   0.0000   0.0000
     charge :     6.428373  (integrated on a sphere of radius 0.357)
     magnetization :         -0.000000    0.000000    1.995501
     magnetization/charge:   -0.000000    0.000000    0.310421
     polar coord.: r, theta, phi [deg] :     1.995501    0.000000  360.000000

 ==============================================================================

     total cpu time spent up to now is        0.6 secs

     End of self-consistent calculation

          k = 0.0000 0.0000 0.0000 (   321 PWs)   bands (ev):

     4.6624   5.1473  11.6562  11.6562  11.6562  13.2088  13.2088  13.3455
    13.3455  13.3455  15.5029  15.5029  39.3748  39.3748  39.3748  44.7177

     occupation numbers 
     1.0000   1.0000   1.0000   1.0000   1.0000   1.0000   1.0000   1.0000
     1.0000   1.0000   0.0000   0.0000   0.0000   0.0000   0.0000   0.0000

          k = 0.0000-0.2500 0.2500 (   338 PWs)   bands (ev):

     6.9627   7.4958  10.9521  11.4330  12.5314  12.5781  12.6816  12.7767
    13.0197  14.5451  14.7077  14.9895  29.9568  30.7879  35.0541  35.5454

     occupation numbers 
     1.0000   1.0000   1.0000   1.0000   1.0000   1.0000   1.0000   1.0000
     1.0000   0.0000   0.0000   0.0000   0.0000   0.0000   0.0000   0.0000

          k = 0.0000 0.5000-0.5000 (   340 PWs)   bands (ev):

     8.7729  10.0517  10.2201  11.7968  12.6870  13.1791  13.5207  13.9679
    14.3996  14.8255  15.5196  16.2961  21.0446  22.3315  31.8516  32.2994

     occupation numbers 
     1.0000   1.0000   1.0000   1.0000   1.0000   1.0000   0.9995   0.0885
     0.0000   0.0000   0.0000   0.0000   0.0000   0.0000   0.0000   0.0000

          k = 0.0000 0.2500-0.2500 (   338 PWs)   bands (ev):

     6.9627   7.4958  10.9521  11.4330  12.5314  12.5781  12.6816  12.7767
    13.0197  14.5451  14.7077  14.9895  29.9568  30.7879  35.0541  35.5454

     occupation numbers 
     1.0000   1.0000   1.0000   1.0000   1.0000   1.0000   1.0000   1.0000
     1.0000   0.0000   0.0000   0.0000   0.0000   0.0000   0.0000   0.0000

          k =-0.2500 0.2500 0.0000 (   338 PWs)   bands (ev):

     6.9627   7.4958  10.9521  11.4330  12.5314  12.5781  12.6816  12.7767
    13.0197  14.5451  14.7077  14.9895  29.9568  30.7879  35.0541  35.5454

     occupation numbers 
     1.0000   1.0000   1.0000   1.0000   1.0000   1.0000   1.0000   1.0000
     1.0000   0.0000   0.0000   0.0000   0.0000   0.0000   0.0000   0.0000

          k =-0.2500 0.0000 0.2500 (   338 PWs)   bands (ev):

     6.9627   7.4958  10.9521  11.4330  12.5314  12.5781  12.6816  12.7767
    13.0197  14.5451  14.7077  14.9895  29.9568  30.7879  35.0541  35.5454

     occupation numbers 
     1.0000   1.0000   1.0000   1.0000   1.0000   1.0000   1.0000   1.0000
     1.0000   0.0000   0.0000   0.0000   0.0000   0.0000   0.0000   0.0000

          k =-0.2500 0.7500-0.5000 (   336 PWs)   bands (ev):

     9.5299  10.4077  10.5877  10.9445  11.9539  12.3241  12.8208  13.2357
    14.9155  15.4351  16.0282  17.5843  25.0009  25.2117  25.9636  26.0601

     occupation numbers 
     1.0000   1.0000   1.0000   1.0000   1.0000   1.0000   1.0000   1.0000
     0.0000   0.0000   0.0000   0.0000   0.0000   0.0000   0.0000   0.0000

          k =-0.2500 0.5000-0.2500 (   336 PWs)   bands (ev):

     9.5299  10.4077  10.5877  10.9445  11.9539  12.3241  12.8208  13.2357
    14.9155  15.4351  16.0282  17.5843  25.0009  25.2117  25.9636  26.0601

     occupation numbers 
     1.0000   1.0000   1.0000   1.0000   1.0000   1.0000   1.0000   1.0000
     0.0000   0.0000   0.0000   0.0000   0.0000   0.0000   0.0000   0.0000

          k = 0.5000-0.5000 0.0000 (   340 PWs)   bands (ev):

     8.7729  10.0517  10.2201  11.7968  12.6870  13.1791  13.5207  13.9679
    14.3996  14.8255  15.5196  16.2961  21.0446  22.3315  31.8516  32.8974

     occupation numbers 
     1.0000   1.0000   1.0000   1.0000   1.0000   1.0000   0.9995   0.0885
     0.0000   0.0000   0.0000   0.0000   0.0000   0.0000   0.0000   0.0000

          k = 0.5000-0.7500 0.2500 (   336 PWs)   bands (ev):

     9.5299  10.4077  10.5877  10.9445  11.9539  12.3241  12.8208  13.2357
    14.9155  15.4351  16.0282  17.5843  25.0009  25.2117  25.9636  26.0601

     occupation numbers 
     1.0000   1.0000   1.0000   1.0000   1.0000   1.0000   1.0000   1.0000
     0.0000   0.0000   0.0000   0.0000   0.0000   0.0000   0.0000   0.0000

          k = 0.5000 0.0000-0.5000 (   340 PWs)   bands (ev):

     8.7729  10.0517  10.2201  11.7968  12.6870  13.1791  13.5207  13.9679
    14.3996  14.8255  15.5196  16.2961  21.0446  22.3315  31.8516  32.2994

     occupation numbers 
     1.0000   1.0000   1.0000   1.0000   1.0000   1.0000   0.9995   0.0885
     0.0000   0.0000   0.0000   0.0000   0.0000   0.0000   0.0000   0.0000

          k = 0.5000-0.2500-0.2500 (   336 PWs)   bands (ev):

     9.5299  10.4077  10.5877  10.9445  11.9539  12.3241  12.8208  13.2357
    14.9155  15.4351  16.0282  17.5843  25.0009  25.2117  25.9636  26.0601

     occupation numbers 
     1.0000   1.0000   1.0000   1.0000   1.0000   1.0000   1.0000   1.0000
     0.0000   0.0000   0.0000   0.0000   0.0000   0.0000   0.0000   0.0000

          k = 0.2500-0.2500 0.0000 (   338 PWs)   bands (ev):

     6.9627   7.4958  10.9521  11.4330  12.5314  12.5781  12.6816  12.7767
    13.0197  14.5451  14.7077  14.9895  29.9568  30.7879  35.0541  35.5454

     occupation numbers 
     1.0000   1.0000   1.0000   1.0000   1.0000   1.0000   1.0000   1.0000
     1.0000   0.0000   0.0000   0.0000   0.0000   0.0000   0.0000   0.0000

          k = 0.2500-0.5000 0.2500 (   336 PWs)   bands (ev):

     9.5299  10.4077  10.5877  10.9445  11.9539  12.3241  12.8208  13.2357
    14.9155  15.4351  16.0282  17.5843  25.0009  25.2117  25.9636  26.0601

     occupation numbers 
     1.0000   1.0000   1.0000   1.0000   1.0000   1.0000   1.0000   1.0000
     0.0000   0.0000   0.0000   0.0000   0.0000   0.0000   0.0000   0.0000

          k = 0.2500 0.2500-0.5000 (   336 PWs)   bands (ev):

     9.5299  10.4077  10.5877  10.9445  11.9539  12.3241  12.8208  13.2357
    14.9155  15.4351  16.0282  17.5843  25.0009  25.2117  25.9636  26.0601

     occupation numbers 
     1.0000   1.0000   1.0000   1.0000   1.0000   1.0000   1.0000   1.0000
     0.0000   0.0000   0.0000   0.0000   0.0000   0.0000   0.0000   0.0000

          k = 0.2500 0.0000-0.2500 (   338 PWs)   bands (ev):

     6.9627   7.4958  10.9521  11.4330  12.5314  12.5781  12.6816  12.7767
    13.0197  14.5451  14.7077  14.9895  29.9568  30.7879  35.0541  35.5454

     occupation numbers 
     1.0000   1.0000   1.0000   1.0000   1.0000   1.0000   1.0000   1.0000
     1.0000   0.0000   0.0000   0.0000   0.0000   0.0000   0.0000   0.0000

          k = 0.2500 0.0000 0.2500 (   338 PWs)   bands (ev):

     6.9627   7.4958  10.9521  11.4330  12.5314  12.5781  12.6816  12.7767
    13.0197  14.5451  14.7077  14.9895  29.9568  30.7879  35.0541  35.5454

     occupation numbers 
     1.0000   1.0000   1.0000   1.0000   1.0000   1.0000   1.0000   1.0000
     1.0000   0.0000   0.0000   0.0000   0.0000   0.0000   0.0000   0.0000

          k = 0.2500-0.2500 0.5000 (   336 PWs)   bands (ev):

     9.5299  10.4077  10.5877  10.9445  11.9539  12.3241  12.8208  13.2357
    14.9155  15.4351  16.0282  17.5843  25.0009  25.2117  25.9636  26.0601

     occupation numbers 
     1.0000   1.0000   1.0000   1.0000   1.0000   1.0000   1.0000   1.0000
     0.0000   0.0000   0.0000   0.0000   0.0000   0.0000   0.0000   0.0000

          k = 0.2500 0.5000-0.2500 (   336 PWs)   bands (ev):

     9.5299  10.4077  10.5877  10.9445  11.9539  12.3241  12.8208  13.2357
    14.9155  15.4351  16.0282  17.5843  25.0009  25.2117  25.9636  26.0601

     occupation numbers 
     1.0000   1.0000   1.0000   1.0000   1.0000   1.0000   1.0000   1.0000
     0.0000   0.0000   0.0000   0.0000   0.0000   0.0000   0.0000   0.0000

          k = 0.2500 0.2500 0.0000 (   338 PWs)   bands (ev):

     6.9627   7.4958  10.9521  11.4330  12.5314  12.5781  12.6816  12.7767
    13.0197  14.5451  14.7077  14.9895  29.9568  30.7879  35.0541  35.5454

     occupation numbers 
     1.0000   1.0000   1.0000   1.0000   1.0000   1.0000   1.0000   1.0000
     1.0000   0.0000   0.0000   0.0000   0.0000   0.0000   0.0000   0.0000

          k = 0.0000 0.2500 0.2500 (   338 PWs)   bands (ev):

     6.9627   7.4958  10.9521  11.4330  12.5314  12.5781  12.6816  12.7767
    13.0197  14.5451  14.7077  14.9895  29.9568  30.7879  35.0541  35.5454

     occupation numbers 
     1.0000   1.0000   1.0000   1.0000   1.0000   1.0000   1.0000   1.0000
     1.0000   0.0000   0.0000   0.0000   0.0000   0.0000   0.0000   0.0000

          k = 0.0000 0.0000 0.5000 (   341 PWs)   bands (ev):

     8.6445   9.3836  10.6324  11.9539  11.9539  12.6009  12.6976  13.5978
    13.5978  13.9492  14.4755  16.0066  30.9196  30.9196  31.7136  31.7136

     occupation numbers 
     1.0000   1.0000   1.0000   1.0000   1.0000   1.0000   1.0000   0.9937
     0.9937   0.1238   0.0000   0.0000   0.0000   0.0000   0.0000   0.0000

          k = 0.0000 0.7500-0.2500 (   330 PWs)   bands (ev):

     9.5632  10.1658  11.1623  11.7346  12.1137  12.6338  13.7507  14.3775
    14.4340  16.3221  18.5178  19.6003  21.3968  22.4921  27.1343  27.8562

     occupation numbers 
     1.0000   1.0000   1.0000   1.0000   1.0000   1.0000   0.8178   0.0000
     0.0000   0.0000   0.0000   0.0000   0.0000   0.0000   0.0000   0.0000

          k = 0.0000 0.5000 0.0000 (   341 PWs)   bands (ev):

     8.6445   9.3836  10.6324  11.9539  11.9539  12.6009  12.6976  13.5978
    13.5978  13.9492  14.4755  16.0066  30.9196  30.9196  31.7136  31.7136

     occupation numbers 
     1.0000   1.0000   1.0000   1.0000   1.0000   1.0000   1.0000   0.9937
     0.9937   0.1238   0.0000   0.0000   0.0000   0.0000   0.0000   0.0000

          k = 0.7500-0.5000 0.2500 (   336 PWs)   bands (ev):

     9.5299  10.4077  10.5877  10.9445  11.9539  12.3241  12.8208  13.2357
    14.9155  15.4351  16.0282  17.5843  25.0009  25.2117  25.9636  26.0601

     occupation numbers 
     1.0000   1.0000   1.0000   1.0000   1.0000   1.0000   1.0000   1.0000
     0.0000   0.0000   0.0000   0.0000   0.0000   0.0000   0.0000   0.0000

          k = 0.7500-0.7500 0.5000 (   336 PWs)   bands (ev):

     9.5299  10.4077  10.5877  10.9445  11.9539  12.3241  12.8208  13.2357
    14.9155  15.4351  16.0282  17.5843  25.0009  25.2117  25.9636  26.0601

     occupation numbers 
     1.0000   1.0000   1.0000   1.0000   1.0000   1.0000   1.0000   1.0000
     0.0000   0.0000   0.0000   0.0000   0.0000   0.0000   0.0000   0.0000

          k = 0.7500 0.0000-0.2500 (   330 PWs)   bands (ev):

     9.5632  10.1658  11.1623  11.7346  12.1137  12.6338  13.7507  14.3775
    14.4340  16.3221  18.5178  19.6003  21.3968  22.4921  27.1343  27.8562

     occupation numbers 
     1.0000   1.0000   1.0000   1.0000   1.0000   1.0000   0.8178   0.0000
     0.0000   0.0000   0.0000   0.0000   0.0000   0.0000   0.0000   0.0000

          k = 0.7500-0.2500 0.0000 (   330 PWs)   bands (ev):

     9.5632  10.1658  11.1623  11.7346  12.1137  12.6338  13.7507  14.3775
    14.4340  16.3221  18.5178  19.6003  21.3968  22.4921  27.1343  27.8562

     occupation numbers 
     1.0000   1.0000   1.0000   1.0000   1.0000   1.0000   0.8178   0.0000
     0.0000   0.0000   0.0000   0.0000   0.0000   0.0000   0.0000   0.0000

          k = 0.5000-0.2500 0.2500 (   336 PWs)   bands (ev):

     9.5299  10.4077  10.5877  10.9445  11.9539  12.3241  12.8208  13.2357
    14.9155  15.4351  16.0282  17.5843  25.0009  25.2117  25.9636  26.0601

     occupation numbers 
     1.0000   1.0000   1.0000   1.0000   1.0000   1.0000   1.0000   1.0000
     0.0000   0.0000   0.0000   0.0000   0.0000   0.0000   0.0000   0.0000

          k = 0.5000-0.5000 0.5000 (   336 PWs)   bands (ev):

    10.3879  10.3879  10.3879  11.7286  11.7286  11.7286  13.1420  13.1420
    15.4893  15.4893  22.3791  22.3791  22.3791  23.3582  23.3582  23.3585

     occupation numbers 
     1.0000   1.0000   1.0000   1.0000   1.0000   1.0000   1.0000   1.0000
     0.0000   0.0000   0.0000   0.0000   0.0000   0.0000   0.0000   0.0000

          k = 0.5000 0.2500-0.2500 (   336 PWs)   bands (ev):

     9.5299  10.4077  10.5877  10.9445  11.9539  12.3241  12.8208  13.2357
    14.9155  15.4351  16.0282  17.5843  25.0009  25.2117  25.9636  26.0601

     occupation numbers 
     1.0000   1.0000   1.0000   1.0000   1.0000   1.0000   1.0000   1.0000
     0.0000   0.0000   0.0000   0.0000   0.0000   0.0000   0.0000   0.0000

          k = 0.5000 0.0000 0.0000 (   341 PWs)   bands (ev):

     8.6445   9.3836  10.6324  11.9539  11.9539  12.6009  12.6976  13.5978
    13.5978  13.9492  14.4755  16.0066  30.9196  30.9196  31.7136  31.7136

     occupation numbers 
     1.0000   1.0000   1.0000   1.0000   1.0000   1.0000   1.0000   0.9937
     0.9937   0.1238   0.0000   0.0000   0.0000   0.0000   0.0000   0.0000

          k =-0.5000 0.0000-0.5000 (   340 PWs)   bands (ev):

     8.7729  10.0517  10.2201  11.7968  12.6870  13.1791  13.5207  13.9679
    14.3996  14.8255  15.5196  16.2961  21.0446  22.3315  31.8516  32.2994

     occupation numbers 
     1.0000   1.0000   1.0000   1.0000   1.0000   1.0000   0.9995   0.0885
     0.0000   0.0000   0.0000   0.0000   0.0000   0.0000   0.0000   0.0000

          k =-0.5000-0.2500-0.2500 (   336 PWs)   bands (ev):

     9.5299  10.4077  10.5877  10.9445  11.9539  12.3241  12.8208  13.2357
    14.9155  15.4351  16.0282  17.5843  25.0009  25.2117  25.9636  26.0601

     occupation numbers 
     1.0000   1.0000   1.0000   1.0000   1.0000   1.0000   1.0000   1.0000
     0.0000   0.0000   0.0000   0.0000   0.0000   0.0000   0.0000   0.0000

          k =-0.5000 0.5000-1.0000 (   340 PWs)   bands (ev):

     8.7729  10.0517  10.2201  11.7968  12.6870  13.1791  13.5207  13.9679
    14.3996  14.8255  15.5196  16.2961  21.0446  22.3315  31.8516  32.8974

     occupation numbers 
     1.0000   1.0000   1.0000   1.0000   1.0000   1.0000   0.9995   0.0885
     0.0000   0.0000   0.0000   0.0000   0.0000   0.0000   0.0000   0.0000

          k =-0.5000 0.2500-0.7500 (   336 PWs)   bands (ev):

     9.5299  10.4077  10.5877  10.9445  11.9539  12.3241  12.8208  13.2357
    14.9155  15.4351  16.0282  17.5843  25.0009  25.2117  25.9636  26.0601

     occupation numbers 
     1.0000   1.0000   1.0000   1.0000   1.0000   1.0000   1.0000   1.0000
     0.0000   0.0000   0.0000   0.0000   0.0000   0.0000   0.0000   0.0000

          k =-0.7500 0.2500-0.5000 (   336 PWs)   bands (ev):

     9.5299  10.4077  10.5877  10.9445  11.9539  12.3241  12.8208  13.2357
    14.9155  15.4351  16.0282  17.5843  25.0009  25.2117  25.9636  26.0601

     occupation numbers 
     1.0000   1.0000   1.0000   1.0000   1.0000   1.0000   1.0000   1.0000
     0.0000   0.0000   0.0000   0.0000   0.0000   0.0000   0.0000   0.0000

          k =-0.7500 0.0000-0.2500 (   330 PWs)   bands (ev):

     9.5632  10.1658  11.1623  11.7346  12.1137  12.6338  13.7507  14.3775
    14.4340  16.3221  18.5178  19.6003  21.3968  22.4921  27.1343  27.8562

     occupation numbers 
     1.0000   1.0000   1.0000   1.0000   1.0000   1.0000   0.8178   0.0000
     0.0000   0.0000   0.0000   0.0000   0.0000   0.0000   0.0000   0.0000

          k =-0.7500 0.7500-1.0000 (   330 PWs)   bands (ev):

     9.5632  10.1658  11.1623  11.7346  12.1137  12.6338  13.7507  14.3775
    14.4340  16.3221  18.5178  19.6003  21.3968  22.4921  27.1343  27.8562

     occupation numbers 
     1.0000   1.0000   1.0000   1.0000   1.0000   1.0000   0.8178   0.0000
     0.0000   0.0000   0.0000   0.0000   0.0000   0.0000   0.0000   0.0000

          k =-0.7500 0.5000-0.7500 (   336 PWs)   bands (ev):

     9.5299  10.4077  10.5877  10.9445  11.9539  12.3241  12.8208  13.2357
    14.9155  15.4351  16.0282  17.5843  25.0009  25.2117  25.9636  26.0601

     occupation numbers 
     1.0000   1.0000   1.0000   1.0000   1.0000   1.0000   1.0000   1.0000
     0.0000   0.0000   0.0000   0.0000   0.0000   0.0000   0.0000   0.0000

          k = 0.0000-0.5000-0.5000 (   340 PWs)   bands (ev):

     8.7729  10.0517  10.2201  11.7968  12.6870  13.1791  13.5207  13.9679
    14.3996  14.8255  15.5196  16.2961  21.0446  22.3315  31.8516  32.2994

     occupation numbers 
     1.0000   1.0000   1.0000   1.0000   1.0000   1.0000   0.9995   0.0885
     0.0000   0.0000   0.0000   0.0000   0.0000   0.0000   0.0000   0.0000

          k = 0.0000-0.7500-0.2500 (   330 PWs)   bands (ev):

     9.5632  10.1658  11.1623  11.7346  12.1137  12.6338  13.7507  14.3775
    14.4340  16.3221  18.5178  19.6003  21.3968  22.4921  27.1343  27.8562

     occupation numbers 
     1.0000   1.0000   1.0000   1.0000   1.0000   1.0000   0.8178   0.0000
     0.0000   0.0000   0.0000   0.0000   0.0000   0.0000   0.0000   0.0000

          k = 0.0000 0.0000-1.0000 (   370 PWs)   bands (ev):

     8.6946   8.6946  10.4242  10.4242  13.5735  13.5735  13.5735  15.4473
    15.4473  15.4473  22.8409  22.8409  22.8409  23.3803  23.3803  23.3803

     occupation numbers 
     1.0000   1.0000   1.0000   1.0000   0.9970   0.9970   0.9970   0.0000
     0.0000   0.0000   0.0000   0.0000   0.0000   0.0000   0.0000   0.0000

          k = 0.0000-0.2500-0.7500 (   330 PWs)   bands (ev):

     9.5632  10.1658  11.1623  11.7346  12.1137  12.6338  13.7507  14.3775
    14.4340  16.3221  18.5178  19.6003  21.3968  22.4921  27.1343  27.8562

     occupation numbers 
     1.0000   1.0000   1.0000   1.0000   1.0000   1.0000   0.8178   0.0000
     0.0000   0.0000   0.0000   0.0000   0.0000   0.0000   0.0000   0.0000

          k =-0.2500-0.2500-0.5000 (   336 PWs)   bands (ev):

     9.5299  10.4077  10.5877  10.9445  11.9539  12.3241  12.8208  13.2357
    14.9155  15.4351  16.0282  17.5843  25.0009  25.2117  25.9636  26.0601

     occupation numbers 
     1.0000   1.0000   1.0000   1.0000   1.0000   1.0000   1.0000   1.0000
     0.0000   0.0000   0.0000   0.0000   0.0000   0.0000   0.0000   0.0000

          k =-0.2500-0.5000-0.2500 (   336 PWs)   bands (ev):

     9.5299  10.4077  10.5877  10.9445  11.9539  12.3241  12.8208  13.2357
    14.9155  15.4351  16.0282  17.5843  25.0009  25.2117  25.9636  26.0601

     occupation numbers 
     1.0000   1.0000   1.0000   1.0000   1.0000   1.0000   1.0000   1.0000
     0.0000   0.0000   0.0000   0.0000   0.0000   0.0000   0.0000   0.0000

          k =-0.2500 0.2500-1.0000 (   330 PWs)   bands (ev):

     9.5632  10.1658  11.1623  11.7346  12.1137  12.6338  13.7507  14.3775
    14.4340  16.3221  18.5178  19.6003  21.3968  22.4921  27.1343  27.8562

     occupation numbers 
     1.0000   1.0000   1.0000   1.0000   1.0000   1.0000   0.8178   0.0000
     0.0000   0.0000   0.0000   0.0000   0.0000   0.0000   0.0000   0.0000

          k =-0.2500 0.0000-0.7500 (   330 PWs)   bands (ev):

     9.5632  10.1658  11.1623  11.7346  12.1137  12.6338  13.7507  14.3775
    14.4340  16.3221  18.5178  19.6003  21.3968  22.4921  27.1343  27.8562

     occupation numbers 
     1.0000   1.0000   1.0000   1.0000   1.0000   1.0000   0.8178   0.0000
     0.0000   0.0000   0.0000   0.0000   0.0000   0.0000   0.0000   0.0000

          k =-0.2500 0.0000-0.2500 (   338 PWs)   bands (ev):

     6.9627   7.4958  10.9521  11.4330  12.5314  12.5781  12.6816  12.7767
    13.0197  14.5451  14.7077  14.9895  29.9568  30.7879  35.0541  35.5454

     occupation numbers 
     1.0000   1.0000   1.0000   1.0000   1.0000   1.0000   1.0000   1.0000
     1.0000   0.0000   0.0000   0.0000   0.0000   0.0000   0.0000   0.0000

          k =-0.2500-0.2500 0.0000 (   338 PWs)   bands (ev):

     6.9627   7.4958  10.9521  11.4330  12.5314  12.5781  12.6816  12.7767
    13.0197  14.5451  14.7077  14.9895  29.9568  30.7879  35.0541  35.5454

     occupation numbers 
     1.0000   1.0000   1.0000   1.0000   1.0000   1.0000   1.0000   1.0000
     1.0000   0.0000   0.0000   0.0000   0.0000   0.0000   0.0000   0.0000

          k =-0.2500 0.5000-0.7500 (   336 PWs)   bands (ev):

     9.5299  10.4077  10.5877  10.9445  11.9539  12.3241  12.8208  13.2357
    14.9155  15.4351  16.0282  17.5843  25.0009  25.2117  25.9636  26.0601

     occupation numbers 
     1.0000   1.0000   1.0000   1.0000   1.0000   1.0000   1.0000   1.0000
     0.0000   0.0000   0.0000   0.0000   0.0000   0.0000   0.0000   0.0000

          k =-0.2500 0.2500-0.5000 (   336 PWs)   bands (ev):

     9.5299  10.4077  10.5877  10.9445  11.9539  12.3241  12.8208  13.2357
    14.9155  15.4351  16.0282  17.5843  25.0009  25.2117  25.9636  26.0601

     occupation numbers 
     1.0000   1.0000   1.0000   1.0000   1.0000   1.0000   1.0000   1.0000
     0.0000   0.0000   0.0000   0.0000   0.0000   0.0000   0.0000   0.0000

          k =-0.5000 0.2500-0.2500 (   336 PWs)   bands (ev):

     9.5299  10.4077  10.5877  10.9445  11.9539  12.3241  12.8208  13.2357
    14.9155  15.4351  16.0282  17.5843  25.0009  25.2117  25.9636  26.0601

     occupation numbers 
     1.0000   1.0000   1.0000   1.0000   1.0000   1.0000   1.0000   1.0000
     0.0000   0.0000   0.0000   0.0000   0.0000   0.0000   0.0000   0.0000

          k =-0.5000 0.0000 0.0000 (   341 PWs)   bands (ev):

     8.6445   9.3836  10.6324  11.9539  11.9539  12.6009  12.6976  13.5978
    13.5978  13.9492  14.4755  16.0066  30.9196  30.9196  31.7136  31.7136

     occupation numbers 
     1.0000   1.0000   1.0000   1.0000   1.0000   1.0000   1.0000   0.9937
     0.9937   0.1238   0.0000   0.0000   0.0000   0.0000   0.0000   0.0000

          k =-0.5000 0.7500-0.7500 (   336 PWs)   bands (ev):

     9.5299  10.4077  10.5877  10.9445  11.9539  12.3241  12.8208  13.2357
    14.9155  15.4351  16.0282  17.5843  25.0009  25.2117  25.9636  26.0601

     occupation numbers 
     1.0000   1.0000   1.0000   1.0000   1.0000   1.0000   1.0000   1.0000
     0.0000   0.0000   0.0000   0.0000   0.0000   0.0000   0.0000   0.0000

          k =-0.5000 0.5000-0.5000 (   336 PWs)   bands (ev):

    10.3879  10.3879  10.3879  11.7286  11.7286  11.7286  13.1420  13.1420
    15.4893  15.4893  22.3791  22.3791  22.3791  23.3582  23.3582  23.3582

     occupation numbers 
     1.0000   1.0000   1.0000   1.0000   1.0000   1.0000   1.0000   1.0000
     0.0000   0.0000   0.0000   0.0000   0.0000   0.0000   0.0000   0.0000

          k = 0.2500-0.5000-0.2500 (   336 PWs)   bands (ev):

     9.5299  10.4077  10.5877  10.9445  11.9539  12.3241  12.8208  13.2357
    14.9155  15.4351  16.0282  17.5843  25.0009  25.2117  25.9636  26.0601

     occupation numbers 
     1.0000   1.0000   1.0000   1.0000   1.0000   1.0000   1.0000   1.0000
     0.0000   0.0000   0.0000   0.0000   0.0000   0.0000   0.0000   0.0000

          k = 0.2500-0.7500 0.0000 (   330 PWs)   bands (ev):

     9.5632  10.1658  11.1623  11.7346  12.1137  12.6338  13.7507  14.3775
    14.4340  16.3221  18.5178  19.6003  21.3968  22.4921  27.1343  27.8562

     occupation numbers 
     1.0000   1.0000   1.0000   1.0000   1.0000   1.0000   0.8178   0.0000
     0.0000   0.0000   0.0000   0.0000   0.0000   0.0000   0.0000   0.0000

          k = 0.2500 0.0000-0.7500 (   330 PWs)   bands (ev):

     9.5632  10.1658  11.1623  11.7346  12.1137  12.6338  13.7507  14.3775
    14.4340  16.3221  18.5178  19.6003  21.3968  22.4921  27.1343  27.8562

     occupation numbers 
     1.0000   1.0000   1.0000   1.0000   1.0000   1.0000   0.8178   0.0000
     0.0000   0.0000   0.0000   0.0000   0.0000   0.0000   0.0000   0.0000

          k = 0.2500-0.2500-0.5000 (   336 PWs)   bands (ev):

     9.5299  10.4077  10.5877  10.9445  11.9539  12.3241  12.8208  13.2357
    14.9155  15.4351  16.0282  17.5843  25.0009  25.2117  25.9636  26.0601

     occupation numbers 
     1.0000   1.0000   1.0000   1.0000   1.0000   1.0000   1.0000   1.0000
     0.0000   0.0000   0.0000   0.0000   0.0000   0.0000   0.0000   0.0000

          k = 0.0000-0.2500-0.2500 (   338 PWs)   bands (ev):

     6.9627   7.4958  10.9521  11.4330  12.5314  12.5781  12.6816  12.7767
    13.0197  14.5451  14.7077  14.9895  29.9568  30.7879  35.0541  35.5454

     occupation numbers 
     1.0000   1.0000   1.0000   1.0000   1.0000   1.0000   1.0000   1.0000
     1.0000   0.0000   0.0000   0.0000   0.0000   0.0000   0.0000   0.0000

          k = 0.0000-0.5000 0.0000 (   341 PWs)   bands (ev):

     8.6445   9.3836  10.6324  11.9539  11.9539  12.6009  12.6976  13.5978
    13.5978  13.9492  14.4755  16.0066  30.9196  30.9196  31.7136  31.7136

     occupation numbers 
     1.0000   1.0000   1.0000   1.0000   1.0000   1.0000   1.0000   0.9937
     0.9937   0.1238   0.0000   0.0000   0.0000   0.0000   0.0000   0.0000

          k = 0.0000 0.2500-0.7500 (   330 PWs)   bands (ev):

     9.5632  10.1658  11.1623  11.7346  12.1137  12.6338  13.7507  14.3775
    14.4340  16.3221  18.5178  19.6003  21.3968  22.4921  27.1343  27.8562

     occupation numbers 
     1.0000   1.0000   1.0000   1.0000   1.0000   1.0000   0.8178   0.0000
     0.0000   0.0000   0.0000   0.0000   0.0000   0.0000   0.0000   0.0000

          k = 0.0000 0.0000-0.5000 (   341 PWs)   bands (ev):

     8.6445   9.3836  10.6324  11.9539  11.9539  12.6009  12.6976  13.5978
    13.5978  13.9492  14.4755  16.0066  30.9196  30.9196  31.7136  31.7136

     occupation numbers 
     1.0000   1.0000   1.0000   1.0000   1.0000   1.0000   1.0000   0.9937
     0.9937   0.1238   0.0000   0.0000   0.0000   0.0000   0.0000   0.0000

     the Fermi energy is    13.8380 ev

!    total energy              =     -54.27510461 Ry
     estimated scf accuracy    <          3.6E-11 Ry
     smearing contrib. (-TS)   =      -0.00062005 Ry
     internal energy E=F+TS    =     -54.27448456 Ry

     The total energy is F=E-TS. E is the sum of the following terms:
     one-electron contribution =       9.38258405 Ry
     hartree contribution      =       5.26990555 Ry
     xc contribution           =     -25.84318927 Ry
     ewald contribution        =     -43.08378489 Ry

     total magnetization       =    -0.00     0.00     2.05 Bohr mag/cell
     absolute magnetization    =     2.05 Bohr mag/cell

     convergence has been achieved in  12 iterations

     Writing all to output data dir ./tempdir/Femag.save/
 
     init_run     :      0.04s CPU      0.06s WALL (       1 calls)
     electrons    :      0.49s CPU      0.55s WALL (       1 calls)

     Called by init_run:
     wfcinit      :      0.02s CPU      0.02s WALL (       1 calls)
     wfcinit:atom :      0.00s CPU      0.00s WALL (       4 calls)
     wfcinit:wfcr :      0.01s CPU      0.02s WALL (       4 calls)
     potinit      :      0.00s CPU      0.00s WALL (       1 calls)
     hinit0       :      0.02s CPU      0.03s WALL (       1 calls)

     Called by electrons:
     c_bands      :      0.37s CPU      0.40s WALL (      13 calls)
     sum_band     :      0.08s CPU      0.09s WALL (      13 calls)
     v_of_rho     :      0.02s CPU      0.02s WALL (      13 calls)
     v_h          :      0.00s CPU      0.00s WALL (      13 calls)
     v_xc         :      0.01s CPU      0.01s WALL (      13 calls)
     mix_rho      :      0.02s CPU      0.02s WALL (      13 calls)

     Called by c_bands:
     init_us_2    :      0.00s CPU      0.00s WALL (     108 calls)
     init_us_2:cp :      0.00s CPU      0.00s WALL (     108 calls)
     cegterg      :      0.33s CPU      0.35s WALL (      52 calls)

     Called by sum_band:
     sum_band:wei :      0.00s CPU      0.01s WALL (      13 calls)
     sum_band:loo :      0.07s CPU      0.07s WALL (      13 calls)
     sum_band:buf :      0.00s CPU      0.00s WALL (      52 calls)
     sum_band:ini :      0.00s CPU      0.00s WALL (      52 calls)

     Called by *egterg:
     cdiaghg      :      0.03s CPU      0.04s WALL (     162 calls)
     cegterg:over :      0.01s CPU      0.01s WALL (     114 calls)
     cegterg:upda :      0.00s CPU      0.00s WALL (     114 calls)
     cegterg:last :      0.01s CPU      0.01s WALL (      89 calls)
     h_psi        :      0.29s CPU      0.30s WALL (     170 calls)
     g_psi        :      0.00s CPU      0.00s WALL (     114 calls)

     Called by h_psi:
     h_psi:calbec :      0.00s CPU      0.00s WALL (     170 calls)
     vloc_psi     :      0.28s CPU      0.29s WALL (     170 calls)
     add_vuspsi   :      0.00s CPU      0.00s WALL (     170 calls)

     General routines
     calbec       :      0.00s CPU      0.00s WALL (     170 calls)
     fft          :      0.00s CPU      0.02s WALL (     115 calls)
     ffts         :      0.00s CPU      0.00s WALL (      52 calls)
     fftw         :      0.28s CPU      0.29s WALL (    9328 calls)
 
     Parallel routines
 
     PWSCF        :      0.55s CPU      0.68s WALL

 
   This run was terminated on:   8:22:30  11Mar2024            

=------------------------------------------------------------------------------=
   JOB DONE.
=------------------------------------------------------------------------------=
