[0] MPI startup(): Intel(R) MPI Library, Version 2021.10  Build 20230619 (id: c2e19c2f3e)
[0] MPI startup(): Copyright (C) 2003-2023 Intel Corporation.  All rights reserved.
[0] MPI startup(): library kind: release
[0] MPI startup(): libfabric version: 1.18.0-impi
[0] MPI startup(): libfabric provider: mlx
[0] MPI startup(): Load tuning file: "/leonardo/prod/spack/05/install/0.21/linux-rhel8-icelake/gcc-8.5.0/intel-oneapi-mpi-2021.10.0-6ff7efudnkj4xa7o4j67mxatygwzfwqc/mpi/2021.10.0/etc/tuning_icx_shm-ofi_mlx_100.dat"
[0] MPI startup(): Rank    Pid      Node name                Pin cpu
[0] MPI startup(): 0       570266   lrdn0524.leonardo.local  0
[0] MPI startup(): 1       570267   lrdn0524.leonardo.local  1
[0] MPI startup(): 2       570268   lrdn0524.leonardo.local  2
[0] MPI startup(): 3       570269   lrdn0524.leonardo.local  3
[0] MPI startup(): 4       570270   lrdn0524.leonardo.local  4
[0] MPI startup(): 5       570271   lrdn0524.leonardo.local  5
[0] MPI startup(): 6       570272   lrdn0524.leonardo.local  6
[0] MPI startup(): 7       570273   lrdn0524.leonardo.local  7
[0] MPI startup(): 8       570274   lrdn0524.leonardo.local  8
[0] MPI startup(): 9       570275   lrdn0524.leonardo.local  9
[0] MPI startup(): 10      570276   lrdn0524.leonardo.local  10
[0] MPI startup(): 11      570277   lrdn0524.leonardo.local  11
[0] MPI startup(): 12      570278   lrdn0524.leonardo.local  12
[0] MPI startup(): 13      570279   lrdn0524.leonardo.local  13
[0] MPI startup(): 14      570280   lrdn0524.leonardo.local  14
[0] MPI startup(): 15      570281   lrdn0524.leonardo.local  15
[0] MPI startup(): I_MPI_ROOT=/leonardo/prod/spack/05/install/0.21/linux-rhel8-icelake/gcc-8.5.0/intel-oneapi-mpi-2021.10.0-6ff7efudnkj4xa7o4j67mxatygwzfwqc/mpi/2021.10.0
[0] MPI startup(): I_MPI_MPIRUN=mpirun
[0] MPI startup(): I_MPI_BIND_WIN_ALLOCATE=localalloc
[0] MPI startup(): I_MPI_HYDRA_TOPOLIB=hwloc
[0] MPI startup(): I_MPI_JOB_RESPECT_PROCESS_PLACEMENT=0
[0] MPI startup(): I_MPI_HYDRA_BOOTSTRAP=slurm
[0] MPI startup(): I_MPI_RETURN_WIN_MEM_NUMA=0
[0] MPI startup(): I_MPI_PIN_CELL=core
[0] MPI startup(): I_MPI_PIN_DOMAIN=OMP
[0] MPI startup(): I_MPI_INTERNAL_MEM_POLICY=default
[0] MPI startup(): I_MPI_DEBUG=5

     Program PWSCF v.7.2 starts on  4Mar2024 at 13:19:59 
        Git branch: heads/qe-7.2
        Last git commit: b4c5e8deeb7d1863e7553a87b45f8d22c21926a5
        Last git commit date: Mon Mar 27 16:12:09 2023 +0000
        Last git commit subject: Merge branch 'merge_fix_hubbard' into 'develop'

     This program is part of the open-source Quantum ESPRESSO suite
     for quantum simulation of materials; please cite
         "P. Giannozzi et al., J. Phys.:Condens. Matter 21 395502 (2009);
         "P. Giannozzi et al., J. Phys.:Condens. Matter 29 465901 (2017);
         "P. Giannozzi et al., J. Chem. Phys. 152 154105 (2020);
          URL http://www.quantum-espresso.org", 
     in publications or presentations arising from this work. More details at
     http://www.quantum-espresso.org/quote

     Parallel version (MPI & OpenMP), running on      32 processor cores
     Number of MPI processes:                16
     Threads/MPI process:                     2

     MPI processes distributed on     1 nodes
     500218 MiB available memory on the printing compute node when the environment starts
 
     Reading input from /leonardo_scratch/large/userexternal/obaseggi/workshop_ENCCS/Day-1_old/ex3-omp/../inputs/pw.CuO.scf.in
Warning: card  &CELL ignored
Warning: card     CELL_DYNAMICS = BFGS, ignored
Warning: card     PRESS = 0 ignored
Warning: card  / ignored

     Current dimensions of program PWSCF are:
     Max number of different atomic species (ntypx) = 10
     Max number of k-points (npk) =  40000
     Max angular momentum in pseudopotentials (lmaxx) =  4
     Found identity + (  0.2500  0.2500  0.0000) symmetry
     This is a supercell, fractional translations are disabled
     Message from routine setup:
     using ibrav=0 with symmetry is DISCOURAGED, use correct ibrav instead
 
     K-points division:     npool     =       4
     R & G space division:  proc/nbgrp/npool/nimage =       4
     Subspace diagonalization in iterative solution of the eigenvalue problem:
     one sub-group per band group will be used
     scalapack distributed-memory algorithm (size of sub-group:  2*  2 procs)

 
     Parallelization info
     --------------------
     sticks:   dense  smooth     PW     G-vecs:    dense   smooth      PW
     Min        1596     636    177               120758    30550    4553
     Max        1597     637    178               120760    30555    4556
     Sum        6385    2547    711               483035   122213   18219
 
     Using Slab Decomposition
 


     bravais-lattice index     =            0
     lattice parameter (alat)  =      17.6992  a.u.
     unit-cell volume          =    4367.8091 (a.u.)^3
     number of atoms/cell      =           64
     number of atomic types    =            2
     number of electrons       =       800.00
     number of Kohn-Sham states=          480
     kinetic-energy cutoff     =      35.0000  Ry
     charge density cutoff     =     350.0000  Ry
     scf convergence threshold =      1.0E-07
     mixing beta               =       0.5000
     number of iterations used =            8  plain     mixing
     Exchange-correlation= SLA  PW   PBE  PBE
                           (   1   4   3   4   0   0   0)

     celldm(1)=  17.699175  celldm(2)=   0.000000  celldm(3)=   0.000000
     celldm(4)=   0.000000  celldm(5)=   0.000000  celldm(6)=   0.000000

     crystal axes: (cart. coord. in units of alat)
               a(1) = (   1.000000   0.000000   0.000000 )  
               a(2) = (   0.000000   0.730365   0.000000 )  
               a(3) = (  -0.184506   0.000000   1.078610 )  

     reciprocal axes: (cart. coord. in units 2 pi/alat)
               b(1) = (  1.000000  0.000000  0.171059 )  
               b(2) = (  0.000000  1.369178  0.000000 )  
               b(3) = (  0.000000  0.000000  0.927119 )  


     PseudoPot. # 1 for O  read from file:
     /leonardo_scratch/large/userexternal/obaseggi/workshop_ENCCS/Day-1_old/ex3-omp/../../pseudo/o_pbe_v1.2.uspp.F.UPF
     MD5 check sum: 734c27235a0248c51dbae37a1fbe46ec
     Pseudo is Ultrasoft + core correction, Zval =  6.0
     Generated by new atomic code, or converted to UPF format
     Using radial grid of  737 points,  5 beta functions with: 
                l(1) =   0
                l(2) =   0
                l(3) =   1
                l(4) =   1
                l(5) =   2
     Q(r) pseudized with  8 coefficients,  rinner =    0.900   0.900   0.900
                                                       0.900   0.900

     PseudoPot. # 2 for Cu read from file:
     /leonardo_scratch/large/userexternal/obaseggi/workshop_ENCCS/Day-1_old/ex3-omp/../../pseudo/cu_pbe_v1.2.uspp.F.UPF
     MD5 check sum: 6e991ff952a84172a2a52a1c1e996048
     Pseudo is Ultrasoft + core correction, Zval = 19.0
     Generated by new atomic code, or converted to UPF format
     Using radial grid of  867 points,  6 beta functions with: 
                l(1) =   0
                l(2) =   0
                l(3) =   1
                l(4) =   1
                l(5) =   2
                l(6) =   2
     Q(r) pseudized with  8 coefficients,  rinner =    1.150   1.150   1.150
                                                       1.150   1.150

     atomic species   valence    mass     pseudopotential
        O              6.00     1.00000     O ( 1.00)
        Cu            19.00     1.00000     Cu( 1.00)

     Starting magnetic structure 
     atomic species   magnetization
        O            0.000
        Cu           0.500

      2 Sym. Ops., with inversion, found



   Cartesian axes

     site n.     atom                  positions (alat units)
         1           O   tau(   1) = (  -0.0230632   0.1522811   0.1348263  )
         2           O   tau(   2) = (  -0.1614426   0.5780840   0.9437839  )
         3           O   tau(   3) = (  -0.0691897   0.5780840   0.4044788  )
         4           O   tau(   4) = (   0.2269368   0.3348724   0.1348263  )
         5           O   tau(   5) = (   0.0885574   0.0303102   0.9437839  )
         6           O   tau(   6) = (   0.1808103   0.0303102   0.4044788  )
         7           O   tau(   7) = (  -0.1153162   0.1522811   0.6741314  )
         8           O   tau(   8) = (   0.1346838   0.3348724   0.6741314  )
         9           O   tau(   9) = (  -0.0230632   0.5174637   0.1348263  )
        10           O   tau(  10) = (  -0.1614426   0.2129014   0.9437839  )
        11           O   tau(  11) = (  -0.0691897   0.2129014   0.4044788  )
        12           O   tau(  12) = (   0.2269368   0.7000550   0.1348263  )
        13           O   tau(  13) = (   0.0885574   0.3954927   0.9437839  )
        14           O   tau(  14) = (   0.1808103   0.3954927   0.4044788  )
        15           O   tau(  15) = (  -0.1153162   0.5174637   0.6741314  )
        16           O   tau(  16) = (   0.1346838   0.7000550   0.6741314  )
        17           O   tau(  17) = (   0.4769368   0.1522811   0.1348263  )
        18           O   tau(  18) = (   0.3385574   0.5780840   0.9437839  )
        19           O   tau(  19) = (   0.4308103   0.5780840   0.4044788  )
        20           O   tau(  20) = (   0.7269368   0.3348724   0.1348263  )
        21           O   tau(  21) = (   0.5885574   0.0303102   0.9437839  )
        22           O   tau(  22) = (   0.6808103   0.0303102   0.4044788  )
        23           O   tau(  23) = (   0.3846838   0.1522811   0.6741314  )
        24           O   tau(  24) = (   0.6346838   0.3348724   0.6741314  )
        25           O   tau(  25) = (   0.4769368   0.5174637   0.1348263  )
        26           O   tau(  26) = (   0.3385574   0.2129014   0.9437839  )
        27           O   tau(  27) = (   0.4308103   0.2129014   0.4044788  )
        28           O   tau(  28) = (   0.7269368   0.7000550   0.1348263  )
        29           O   tau(  29) = (   0.5885574   0.3954927   0.9437839  )
        30           O   tau(  30) = (   0.6808103   0.3954927   0.4044788  )
        31           O   tau(  31) = (   0.3846838   0.5174637   0.6741314  )
        32           O   tau(  32) = (   0.6346838   0.7000550   0.6741314  )
        33           Cu  tau(  33) = (   0.1250000   0.0912956   0.0000000  )
        34           Cu  tau(  34) = (   0.8750000   0.6390695   0.0000000  )
        35           Cu  tau(  35) = (   0.8288735   0.0912956   0.2696526  )
        36           Cu  tau(  36) = (   0.0788735   0.6390695   0.2696526  )
        37           Cu  tau(  37) = (   0.3750000   0.2738869   0.0000000  )
        38           Cu  tau(  38) = (   0.0788735   0.2738869   0.2696526  )
        39           Cu  tau(  39) = (   0.3288735   0.0912956   0.2696526  )
        40           Cu  tau(  40) = (   0.0327471   0.0912956   0.5393051  )
        41           Cu  tau(  41) = (   0.7827471   0.6390695   0.5393051  )
        42           Cu  tau(  42) = (   0.7366206   0.0912956   0.8089577  )
        43           Cu  tau(  43) = (  -0.0133794   0.6390695   0.8089577  )
        44           Cu  tau(  44) = (   0.2827471   0.2738869   0.5393051  )
        45           Cu  tau(  45) = (  -0.0133794   0.2738869   0.8089577  )
        46           Cu  tau(  46) = (   0.2366206   0.0912956   0.8089577  )
        47           Cu  tau(  47) = (   0.1250000   0.4564782   0.0000000  )
        48           Cu  tau(  48) = (   0.8750000   0.2738869   0.0000000  )
        49           Cu  tau(  49) = (   0.8288735   0.4564782   0.2696526  )
        50           Cu  tau(  50) = (   0.3750000   0.6390695   0.0000000  )
        51           Cu  tau(  51) = (   0.3288735   0.4564782   0.2696526  )
        52           Cu  tau(  52) = (   0.0327471   0.4564782   0.5393051  )
        53           Cu  tau(  53) = (   0.7827471   0.2738869   0.5393051  )
        54           Cu  tau(  54) = (   0.7366206   0.4564782   0.8089577  )
        55           Cu  tau(  55) = (   0.2827471   0.6390695   0.5393051  )
        56           Cu  tau(  56) = (   0.2366206   0.4564782   0.8089577  )
        57           Cu  tau(  57) = (   0.6250000   0.0912956   0.0000000  )
        58           Cu  tau(  58) = (   0.5788735   0.6390695   0.2696526  )
        59           Cu  tau(  59) = (   0.5788735   0.2738869   0.2696526  )
        60           Cu  tau(  60) = (   0.5327471   0.0912956   0.5393051  )
        61           Cu  tau(  61) = (   0.4866206   0.6390695   0.8089577  )
        62           Cu  tau(  62) = (   0.4866206   0.2738869   0.8089577  )
        63           Cu  tau(  63) = (   0.6250000   0.4564782   0.0000000  )
        64           Cu  tau(  64) = (   0.5327471   0.4564782   0.5393051  )

     number of k points=     8  Methfessel-Paxton smearing, width (Ry)=  0.0100
                       cart. coord. in units 2pi/alat
        k(    1) = (   0.0000000   0.0000000   0.0000000), wk =   0.1250000
        k(    2) = (   0.0000000   0.0000000  -0.4635595), wk =   0.1250000
        k(    3) = (   0.0000000  -0.6845891   0.0000000), wk =   0.1250000
        k(    4) = (   0.0000000  -0.6845891  -0.4635595), wk =   0.1250000
        k(    5) = (  -0.5000000   0.0000000  -0.0855294), wk =   0.1250000
        k(    6) = (  -0.5000000   0.0000000  -0.5490889), wk =   0.1250000
        k(    7) = (  -0.5000000  -0.6845891  -0.0855294), wk =   0.1250000
        k(    8) = (  -0.5000000  -0.6845891  -0.5490889), wk =   0.1250000

     Dense  grid:   483035 G-vectors     FFT dimensions: ( 108,  80, 120)

     Smooth grid:   122213 G-vectors     FFT dimensions: (  72,  50,  75)

     Estimated max dynamical RAM per process >     503.96 MB

     Estimated total dynamical RAM >       7.18 GB

     Check: negative core charge=   -0.000002
     Generating pointlists ...
     new r_m :   0.0859 (alat units)  1.5202 (a.u.) for type    1
     new r_m :   0.0859 (alat units)  1.5202 (a.u.) for type    2

     Initial potential from superposition of free atoms

     starting charge     767.9999, renormalised to     800.0000
     Starting wfcs are  544 atomic wfcs

     total cpu time spent up to now is       90.5 secs

     per-process dynamical memory:    98.4 Mb

     Self-consistent Calculation

     iteration #  1     ecut=    35.00 Ry     beta= 0.50
     Davidson diagonalization with overlap
     ethr =  1.00E-02,  avg # of iterations =  3.6

     total cpu time spent up to now is      477.2 secs

     total energy              =  -13814.48625731 Ry
     estimated scf accuracy    <     256.67015719 Ry

     total magnetization       =   100.86 Bohr mag/cell
     absolute magnetization    =   107.40 Bohr mag/cell

     iteration #  2     ecut=    35.00 Ry     beta= 0.50
     Davidson diagonalization with overlap
