
     Program DYNMAT v.7.2 starts on 18Feb2024 at 17:41:19 

     This program is part of the open-source Quantum ESPRESSO suite
     for quantum simulation of materials; please cite
         "P. Giannozzi et al., J. Phys.:Condens. Matter 21 395502 (2009);
         "P. Giannozzi et al., J. Phys.:Condens. Matter 29 465901 (2017);
         "P. Giannozzi et al., J. Chem. Phys. 152 154105 (2020);
          URL http://www.quantum-espresso.org", 
     in publications or presentations arising from this work. More details at
     http://www.quantum-espresso.org/quote

     Parallel version (MPI & OpenMP), running on       8 processor cores
     Number of MPI processes:                 1
     Threads/MPI process:                     8

     MPI processes distributed on     1 nodes
     495780 MiB available memory on the printing compute node when the environment starts
 

     Reading Dynamical Matrix from file harmdyn_support
     ...Force constants read
     ...epsilon and Z* not read (not found on file)
     Acoustic Sum Rule: || Z*(ASR) - Z*(orig)|| =    0.000000E+00
     Acoustic Sum Rule: ||dyn(ASR) - dyn(orig)||=    9.513921E-04
     A direction for q was not specified:TO-LO splitting will be absent

     Polarizability (A^3 units)
     multiply by 1.000000 for Clausius-Mossotti correction
         0.000000    0.000000    0.000000
         0.000000    0.000000    0.000000
         0.000000    0.000000    0.000000

     IR activities are in (D/A)^2/amu units

# mode   [cm-1]    [THz]      IR
    1     -0.00   -0.0000    0.0000
    2     -0.00   -0.0000    0.0000
    3      0.00    0.0000    0.0000
    4      8.07    0.2418    0.0000
    5      8.07    0.2418    0.0000
    6      8.07    0.2418    0.0000
    7     23.15    0.6940    0.0000
    8     23.15    0.6940    0.0000
    9     23.15    0.6940    0.0000
   10     38.68    1.1597    0.0000
   11     38.68    1.1597    0.0000
   12     38.68    1.1597    0.0000
   13     78.20    2.3443    0.0000
   14     78.20    2.3443    0.0000
   15     78.20    2.3443    0.0000
 
     DYNMAT       :      0.01s CPU      0.09s WALL

 
   This run was terminated on:  17:41:19  18Feb2024            

=------------------------------------------------------------------------------=
   JOB DONE.
=------------------------------------------------------------------------------=
