ANIMSTEPS   15
CRYSTAL
PRIMVEC
    6.130962502    0.000000000    0.000000000
    0.000000000    6.130962502    0.000000000
    0.000000000    0.000000000    6.130962502
PRIMCOORD    1
      5   1
   Cs     3.06548   3.06548   3.06548  -0.00012  -0.00007   0.04472
   Sn     0.00000   0.00000   0.00000  -0.00012  -0.00007   0.04472
   I      3.06548   0.00000   0.00000  -0.00012  -0.00007   0.04472
   I      0.00000   0.00000   3.06548  -0.00012  -0.00007   0.04472
   I      0.00000   3.06548   0.00000  -0.00012  -0.00007   0.04472
PRIMCOORD    2
      5   1
   Cs     3.06548   3.06548   3.06548   0.03818   0.02329   0.00014
   Sn     0.00000   0.00000   0.00000   0.03818   0.02329   0.00014
   I      3.06548   0.00000   0.00000   0.03818   0.02329   0.00014
   I      0.00000   0.00000   3.06548   0.03818   0.02329   0.00014
   I      0.00000   3.06548   0.00000   0.03818   0.02329   0.00014
PRIMCOORD    3
      5   1
   Cs     3.06548   3.06548   3.06548   0.02329  -0.03818  -0.00000
   Sn     0.00000   0.00000   0.00000   0.02329  -0.03818  -0.00000
   I      3.06548   0.00000   0.00000   0.02329  -0.03818  -0.00000
   I      0.00000   0.00000   3.06548   0.02329  -0.03818  -0.00000
   I      0.00000   3.06548   0.00000   0.02329  -0.03818  -0.00000
PRIMCOORD    4
      5   1
   Cs     3.06548   3.06548   3.06548   0.08423  -0.02311  -0.00005
   Sn     0.00000   0.00000   0.00000  -0.01276   0.00350   0.00001
   I      3.06548   0.00000   0.00000  -0.01716   0.00811   0.00002
   I      0.00000   0.00000   3.06548  -0.02956   0.00811   0.00001
   I      0.00000   3.06548   0.00000  -0.02956   0.00471   0.00002
PRIMCOORD    5
      5   1
   Cs     3.06548   3.06548   3.06548  -0.02302  -0.08387  -0.00808
   Sn     0.00000   0.00000   0.00000   0.00349   0.01270   0.00122
   I      3.06548   0.00000   0.00000   0.00469   0.02943   0.00284
   I      0.00000   0.00000   3.06548   0.00808   0.02943   0.00165
   I      0.00000   3.06548   0.00000   0.00808   0.01709   0.00284
PRIMCOORD    6
      5   1
   Cs     3.06548   3.06548   3.06548   0.00209   0.00781  -0.08697
   Sn     0.00000   0.00000   0.00000  -0.00032  -0.00118   0.01317
   I      3.06548   0.00000   0.00000  -0.00043  -0.00274   0.03052
   I      0.00000   0.00000   3.06548  -0.00073  -0.00274   0.01772
   I      0.00000   3.06548   0.00000  -0.00073  -0.00159   0.03052
PRIMCOORD    7
      5   1
   Cs     3.06548   3.06548   3.06548   0.00000  -0.00000   0.00000
   Sn     0.00000   0.00000   0.00000  -0.00000   0.00000   0.00000
   I      3.06548   0.00000   0.00000  -0.00000  -0.04924  -0.00007
   I      0.00000   0.00000   3.06548   0.05075   0.04924  -0.00000
   I      0.00000   3.06548   0.00000  -0.05075   0.00000   0.00007
PRIMCOORD    8
      5   1
   Cs     3.06548   3.06548   3.06548   0.00000  -0.00000  -0.00000
   Sn     0.00000   0.00000   0.00000  -0.00000   0.00000   0.00000
   I      3.06548   0.00000   0.00000  -0.00000   0.05074  -0.00064
   I      0.00000   0.00000   3.06548   0.04924  -0.05074  -0.00000
   I      0.00000   3.06548   0.00000  -0.04924   0.00000   0.00064
PRIMCOORD    9
      5   1
   Cs     3.06548   3.06548   3.06548   0.00000  -0.00000  -0.00000
   Sn     0.00000   0.00000   0.00000  -0.00000  -0.00000   0.00000
   I      3.06548   0.00000   0.00000   0.00000  -0.00042  -0.07071
   I      0.00000   0.00000   3.06548  -0.00050   0.00042   0.00000
   I      0.00000   3.06548   0.00000   0.00050  -0.00000   0.07071
PRIMCOORD   10
      5   1
   Cs     3.06548   3.06548   3.06548  -0.00145  -0.01265   0.00126
   Sn     0.00000   0.00000   0.00000   0.00807   0.07035  -0.00701
   I      3.06548   0.00000   0.00000   0.00372  -0.04250   0.00423
   I      0.00000   0.00000   3.06548  -0.00487  -0.04250  -0.00323
   I      0.00000   3.06548   0.00000  -0.00487   0.03244   0.00423
PRIMCOORD   11
      5   1
   Cs     3.06548   3.06548   3.06548   0.00015   0.00125   0.01274
   Sn     0.00000   0.00000   0.00000  -0.00083  -0.00696  -0.07081
   I      3.06548   0.00000   0.00000  -0.00038   0.00420   0.04278
   I      0.00000   0.00000   3.06548   0.00050   0.00420  -0.03265
   I      0.00000   3.06548   0.00000   0.00050  -0.00321   0.04278
PRIMCOORD   12
      5   1
   Cs     3.06548   3.06548   3.06548  -0.01271   0.00146   0.00001
   Sn     0.00000   0.00000   0.00000   0.07070  -0.00811  -0.00003
   I      3.06548   0.00000   0.00000   0.03260   0.00490   0.00002
   I      0.00000   0.00000   3.06548  -0.04271   0.00490  -0.00001
   I      0.00000   3.06548   0.00000  -0.04271  -0.00374   0.00002
PRIMCOORD   13
      5   1
   Cs     3.06548   3.06548   3.06548   0.00087   0.00001  -0.00000
   Sn     0.00000   0.00000   0.00000   0.05670   0.00037  -0.00000
   I      3.06548   0.00000   0.00000  -0.08024   0.00009   0.00000
   I      0.00000   0.00000   3.06548   0.01314   0.00009   0.00000
   I      0.00000   3.06548   0.00000   0.01314  -0.00053   0.00000
PRIMCOORD   14
      5   1
   Cs     3.06548   3.06548   3.06548   0.00001  -0.00087  -0.00000
   Sn     0.00000   0.00000   0.00000   0.00037  -0.05670  -0.00000
   I      3.06548   0.00000   0.00000  -0.00053  -0.01314  -0.00000
   I      0.00000   0.00000   3.06548   0.00009  -0.01314   0.00000
   I      0.00000   3.06548   0.00000   0.00009   0.08024  -0.00000
PRIMCOORD   15
      5   1
   Cs     3.06548   3.06548   3.06548   0.00000  -0.00000   0.00087
   Sn     0.00000   0.00000   0.00000   0.00000  -0.00000   0.05670
   I      3.06548   0.00000   0.00000  -0.00000  -0.00000   0.01314
   I      0.00000   0.00000   3.06548   0.00000  -0.00000  -0.08024
   I      0.00000   3.06548   0.00000   0.00000   0.00000   0.01314
