[Molden Format]
[FREQ]
    0.00
    0.00
    0.00
    8.07
    8.07
    8.07
   23.15
   23.15
   23.15
   38.68
   38.68
   38.68
   78.20
   78.20
   78.20
[FR-COORD]
   Cs          5.79292        5.79292        5.79292
   Sn          0.00000        0.00000        0.00000
   I           5.79292        0.00000        0.00000
   I           0.00000        0.00000        5.79292
   I           0.00000        5.79292        0.00000
[FR-NORM-COORD]
 vibration     1
  -0.00119  -0.00075   0.44721
  -0.00119  -0.00075   0.44721
  -0.00119  -0.00075   0.44721
  -0.00119  -0.00075   0.44721
  -0.00119  -0.00075   0.44721
 vibration     2
   0.38178   0.23289   0.00140
   0.38178   0.23289   0.00140
   0.38178   0.23289   0.00140
   0.38178   0.23289   0.00140
   0.38178   0.23289   0.00140
 vibration     3
   0.23289  -0.38179  -0.00002
   0.23289  -0.38179  -0.00002
   0.23289  -0.38179  -0.00002
   0.23289  -0.38179  -0.00002
   0.23289  -0.38179  -0.00002
 vibration     4
   0.84232  -0.23113  -0.00053
  -0.12756   0.03500   0.00008
  -0.17164   0.08111   0.00019
  -0.29559   0.08111   0.00011
  -0.29559   0.04710   0.00019
 vibration     5
  -0.23019  -0.83869  -0.08081
   0.03486   0.12702   0.01224
   0.04691   0.29432   0.02836
   0.08078   0.29432   0.01647
   0.08078   0.17090   0.02836
 vibration     6
   0.02087   0.07807  -0.86971
  -0.00316  -0.01182   0.13171
  -0.00425  -0.02740   0.30520
  -0.00732  -0.02740   0.17722
  -0.00732  -0.01591   0.30520
 vibration     7
   0.00000  -0.00000   0.00000
  -0.00000   0.00000   0.00000
  -0.00000  -0.49243  -0.00066
   0.50746   0.49243  -0.00000
  -0.50746   0.00000   0.00066
 vibration     8
   0.00000  -0.00000  -0.00000
  -0.00000   0.00000   0.00000
  -0.00000   0.50744  -0.00643
   0.49241  -0.50744  -0.00000
  -0.49241   0.00000   0.00643
 vibration     9
   0.00000  -0.00000  -0.00000
  -0.00000  -0.00000   0.00000
   0.00000  -0.00415  -0.70708
  -0.00496   0.00415   0.00000
   0.00496  -0.00000   0.70708
 vibration    10
  -0.01451  -0.12653   0.01260
   0.08070   0.70352  -0.07008
   0.03721  -0.42500   0.04234
  -0.04875  -0.42500  -0.03232
  -0.04875   0.32441   0.04234
 vibration    11
   0.00149   0.01252   0.12736
  -0.00829  -0.06959  -0.70814
  -0.00382   0.04204   0.42778
   0.00501   0.04204  -0.32653
   0.00501  -0.03209   0.42778
 vibration    12
  -0.12715   0.01459   0.00005
   0.70696  -0.08112  -0.00030
   0.32599   0.04901   0.00018
  -0.42707   0.04901  -0.00014
  -0.42707  -0.03741   0.00018
 vibration    13
   0.00867   0.00006  -0.00000
   0.56704   0.00374  -0.00000
  -0.80237   0.00087   0.00000
   0.13144   0.00087   0.00000
   0.13144  -0.00529   0.00000
 vibration    14
   0.00006  -0.00867  -0.00000
   0.00374  -0.56704  -0.00000
  -0.00529  -0.13144  -0.00000
   0.00087  -0.13144   0.00000
   0.00087   0.80237  -0.00000
 vibration    15
   0.00000  -0.00000   0.00867
   0.00000  -0.00000   0.56705
  -0.00000  -0.00000   0.13144
   0.00000  -0.00000  -0.80239
   0.00000   0.00000   0.13144
