
     Program DYNMAT v.7.1 starts on  3Nov2022 at 22:32:12 
        Git branch: develop_bands
        Last git commit: 816aee40db40e6b706df606a62b57acfcd26b4df
        Last git commit date: Fri Oct 21 11:20:44 2022 +0200
        Last git commit subject: improvement for magnons

     This program is part of the open-source Quantum ESPRESSO suite
     for quantum simulation of materials; please cite
         "P. Giannozzi et al., J. Phys.:Condens. Matter 21 395502 (2009);
         "P. Giannozzi et al., J. Phys.:Condens. Matter 29 465901 (2017);
         "P. Giannozzi et al., J. Chem. Phys. 152 154105 (2020);
          URL http://www.quantum-espresso.org", 
     in publications or presentations arising from this work. More details at
     http://www.quantum-espresso.org/quote

     Parallel version (MPI & OpenMP), running on       1 processor cores
     Number of MPI processes:                 1
     Threads/MPI process:                     1

     MPI processes distributed on     1 nodes
     487882 MiB available memory on the printing compute node when the environment starts
 

     Reading Dynamical Matrix from file harmdyn_support
     ...Force constants read
     ...epsilon and Z* not read (not found on file)
     A direction for q was not specified:TO-LO splitting will be absent

     Polarizability (A^3 units)
     multiply by 1.000000 for Clausius-Mossotti correction
         0.000000    0.000000    0.000000
         0.000000    0.000000    0.000000
         0.000000    0.000000    0.000000

     IR activities are in (D/A)^2/amu units

# mode   [cm-1]    [THz]      IR
    1     -0.00   -0.0000    0.0000
    2      0.00    0.0000    0.0000
    3      0.00    0.0000    0.0000
    4      9.40    0.2817    0.0000
    5      9.40    0.2817    0.0000
    6      9.40    0.2817    0.0000
    7     23.27    0.6975    0.0000
    8     23.27    0.6975    0.0000
    9     23.27    0.6975    0.0000
   10     39.33    1.1789    0.0000
   11     39.33    1.1789    0.0000
   12     39.33    1.1789    0.0000
   13     78.38    2.3497    0.0000
   14     78.38    2.3497    0.0000
   15     78.38    2.3497    0.0000
 
     DYNMAT       :      0.00s CPU      0.06s WALL

 
   This run was terminated on:  22:32:12   3Nov2022            

=------------------------------------------------------------------------------=
   JOB DONE.
=------------------------------------------------------------------------------=
