ANIMSTEPS   15
CRYSTAL
PRIMVEC
    6.130960957    0.000000000    0.000000000
    0.000000000    6.130960957    0.000000000
    0.000000000    0.000000000    6.130960957
PRIMCOORD    1
      5   1
   Cs     3.06548   3.06548   3.06548   0.01887  -0.04046  -0.00262
   Sn     0.00000   0.00000   0.00000   0.01887  -0.04046  -0.00262
   I      3.06548   0.00000   0.00000   0.01887  -0.04046  -0.00262
   I      0.00000   0.00000   3.06548   0.01887  -0.04046  -0.00262
   I      0.00000   3.06548   0.00000   0.01887  -0.04046  -0.00262
PRIMCOORD    2
      5   1
   Cs     3.06548   3.06548   3.06548  -0.03999  -0.01809  -0.00858
   Sn     0.00000   0.00000   0.00000  -0.03999  -0.01809  -0.00858
   I      3.06548   0.00000   0.00000  -0.03999  -0.01809  -0.00858
   I      0.00000   0.00000   3.06548  -0.03999  -0.01809  -0.00858
   I      0.00000   3.06548   0.00000  -0.03999  -0.01809  -0.00858
PRIMCOORD    3
      5   1
   Cs     3.06548   3.06548   3.06548  -0.00670  -0.00596   0.04381
   Sn     0.00000   0.00000   0.00000  -0.00670  -0.00596   0.04381
   I      3.06548   0.00000   0.00000  -0.00670  -0.00596   0.04381
   I      0.00000   0.00000   3.06548  -0.00670  -0.00596   0.04381
   I      0.00000   3.06548   0.00000  -0.00670  -0.00596   0.04381
PRIMCOORD    4
      5   1
   Cs     3.06548   3.06548   3.06548   0.07168  -0.04991  -0.00072
   Sn     0.00000   0.00000   0.00000  -0.01086   0.00756   0.00011
   I      3.06548   0.00000   0.00000  -0.01461   0.01751   0.00025
   I      0.00000   0.00000   3.06548  -0.02515   0.01751   0.00015
   I      0.00000   3.06548   0.00000  -0.02515   0.01017   0.00025
PRIMCOORD    5
      5   1
   Cs     3.06548   3.06548   3.06548   0.00061  -0.00038   0.08734
   Sn     0.00000   0.00000   0.00000  -0.00009   0.00006  -0.01323
   I      3.06548   0.00000   0.00000  -0.00012   0.00013  -0.03065
   I      0.00000   0.00000   3.06548  -0.00021   0.00013  -0.01780
   I      0.00000   3.06548   0.00000  -0.00021   0.00008  -0.03065
PRIMCOORD    6
      5   1
   Cs     3.06548   3.06548   3.06548   0.04991   0.07168  -0.00004
   Sn     0.00000   0.00000   0.00000  -0.00756  -0.01086   0.00001
   I      3.06548   0.00000   0.00000  -0.01017  -0.02515   0.00001
   I      0.00000   0.00000   3.06548  -0.01752  -0.02515   0.00001
   I      0.00000   3.06548   0.00000  -0.01752  -0.01461   0.00001
PRIMCOORD    7
      5   1
   Cs     3.06548   3.06548   3.06548   0.00000  -0.00000   0.00000
   Sn     0.00000   0.00000   0.00000  -0.00000  -0.00000   0.00000
   I      3.06548   0.00000   0.00000  -0.00000   0.00207  -0.00199
   I      0.00000   0.00000   3.06548   0.07065  -0.00207  -0.00000
   I      0.00000   3.06548   0.00000  -0.07065  -0.00000   0.00199
PRIMCOORD    8
      5   1
   Cs     3.06548   3.06548   3.06548  -0.00000  -0.00000  -0.00000
   Sn     0.00000   0.00000   0.00000  -0.00000  -0.00000  -0.00000
   I      3.06548   0.00000   0.00000  -0.00000  -0.07068  -0.00000
   I      0.00000   0.00000   3.06548   0.00207   0.07068  -0.00000
   I      0.00000   3.06548   0.00000  -0.00207  -0.00000   0.00000
PRIMCOORD    9
      5   1
   Cs     3.06548   3.06548   3.06548   0.00000  -0.00000   0.00000
   Sn     0.00000   0.00000   0.00000  -0.00000   0.00000  -0.00000
   I      3.06548   0.00000   0.00000  -0.00000  -0.00005  -0.07068
   I      0.00000   0.00000   3.06548  -0.00199   0.00005  -0.00000
   I      0.00000   3.06548   0.00000   0.00199   0.00000   0.07068
PRIMCOORD   10
      5   1
   Cs     3.06548   3.06548   3.06548  -0.01268   0.00169   0.00022
   Sn     0.00000   0.00000   0.00000   0.07053  -0.00938  -0.00123
   I      3.06548   0.00000   0.00000   0.03252   0.00566   0.00075
   I      0.00000   0.00000   3.06548  -0.04261   0.00566  -0.00057
   I      0.00000   3.06548   0.00000  -0.04261  -0.00432   0.00075
PRIMCOORD   11
      5   1
   Cs     3.06548   3.06548   3.06548   0.00022  -0.00001   0.01280
   Sn     0.00000   0.00000   0.00000  -0.00124   0.00006  -0.07115
   I      3.06548   0.00000   0.00000  -0.00057  -0.00003   0.04298
   I      0.00000   0.00000   3.06548   0.00075  -0.00003  -0.03281
   I      0.00000   3.06548   0.00000   0.00075   0.00003   0.04298
PRIMCOORD   12
      5   1
   Cs     3.06548   3.06548   3.06548   0.00169   0.01269  -0.00002
   Sn     0.00000   0.00000   0.00000  -0.00938  -0.07054   0.00011
   I      3.06548   0.00000   0.00000  -0.00432   0.04261  -0.00007
   I      0.00000   0.00000   3.06548   0.00566   0.04261   0.00005
   I      0.00000   3.06548   0.00000   0.00566  -0.03253  -0.00007
PRIMCOORD   13
      5   1
   Cs     3.06548   3.06548   3.06548  -0.00001  -0.00042  -0.00076
   Sn     0.00000   0.00000   0.00000  -0.00041  -0.02729  -0.04971
   I      3.06548   0.00000   0.00000   0.00058  -0.00632  -0.01152
   I      0.00000   0.00000   3.06548  -0.00009  -0.00632   0.07034
   I      0.00000   3.06548   0.00000  -0.00009   0.03861  -0.01152
PRIMCOORD   14
      5   1
   Cs     3.06548   3.06548   3.06548   0.00001   0.00076  -0.00042
   Sn     0.00000   0.00000   0.00000   0.00074   0.04970  -0.02729
   I      3.06548   0.00000   0.00000  -0.00105   0.01152  -0.00633
   I      0.00000   0.00000   3.06548   0.00017   0.01152   0.03861
   I      0.00000   3.06548   0.00000   0.00017  -0.07033  -0.00633
PRIMCOORD   15
      5   1
   Cs     3.06548   3.06548   3.06548  -0.00087   0.00001   0.00000
   Sn     0.00000   0.00000   0.00000  -0.05670   0.00085   0.00000
   I      3.06548   0.00000   0.00000   0.08023   0.00020  -0.00000
   I      0.00000   0.00000   3.06548  -0.01314   0.00020  -0.00000
   I      0.00000   3.06548   0.00000  -0.01314  -0.00120  -0.00000
