[Molden Format]
[FREQ]
    0.00
    0.00
    0.00
    8.07
    8.07
    8.07
   23.16
   23.16
   23.16
   38.68
   38.68
   38.68
   78.20
   78.20
   78.20
[FR-COORD]
   Cs          5.79292        5.79292        5.79292
   Sn          0.00000        0.00000        0.00000
   I           5.79292        0.00000        0.00000
   I           0.00000        0.00000        5.79292
   I           0.00000        5.79292        0.00000
[FR-NORM-COORD]
 vibration     1
   0.18870  -0.40461  -0.02622
   0.18870  -0.40461  -0.02622
   0.18870  -0.40461  -0.02622
   0.18870  -0.40461  -0.02622
   0.18870  -0.40461  -0.02622
 vibration     2
  -0.39988  -0.18093  -0.08579
  -0.39988  -0.18093  -0.08579
  -0.39988  -0.18093  -0.08579
  -0.39988  -0.18093  -0.08579
  -0.39988  -0.18093  -0.08579
 vibration     3
  -0.06701  -0.05964   0.43813
  -0.06701  -0.05964   0.43813
  -0.06701  -0.05964   0.43813
  -0.06701  -0.05964   0.43813
  -0.06701  -0.05964   0.43813
 vibration     4
   0.71677  -0.49911  -0.00718
  -0.10855   0.07559   0.00109
  -0.14606   0.17515   0.00252
  -0.25153   0.17515   0.00146
  -0.25153   0.10171   0.00252
 vibration     5
   0.00612  -0.00377   0.87342
  -0.00093   0.00057  -0.13228
  -0.00125   0.00132  -0.30650
  -0.00215   0.00132  -0.17798
  -0.00215   0.00077  -0.30650
 vibration     6
   0.49912   0.71680  -0.00040
  -0.07559  -0.10856   0.00006
  -0.10171  -0.25154   0.00014
  -0.17515  -0.25154   0.00008
  -0.17515  -0.14607   0.00014
 vibration     7
   0.00000  -0.00000   0.00000
  -0.00000  -0.00000   0.00000
  -0.00000   0.02067  -0.01993
   0.70652  -0.02067  -0.00000
  -0.70652  -0.00000   0.01993
 vibration     8
  -0.00000  -0.00000  -0.00000
  -0.00000  -0.00000  -0.00000
  -0.00000  -0.70680  -0.00004
   0.02068   0.70680  -0.00000
  -0.02068  -0.00000   0.00004
 vibration     9
   0.00000  -0.00000   0.00000
  -0.00000   0.00000  -0.00000
  -0.00000  -0.00054  -0.70683
  -0.01992   0.00054  -0.00000
   0.01992   0.00000   0.70683
 vibration    10
  -0.12684   0.01687   0.00222
   0.70528  -0.09377  -0.01234
   0.32522   0.05665   0.00746
  -0.42606   0.05665  -0.00569
  -0.42606  -0.04324   0.00746
 vibration    11
   0.00223  -0.00010   0.12796
  -0.01238   0.00055  -0.71149
  -0.00571  -0.00033   0.42981
   0.00748  -0.00033  -0.32808
   0.00748   0.00025   0.42981
 vibration    12
   0.01686   0.12686  -0.00020
  -0.09377  -0.70539   0.00109
  -0.04324   0.42612  -0.00066
   0.05665   0.42612   0.00050
   0.05665  -0.32527  -0.00066
 vibration    13
  -0.00006  -0.00417  -0.00760
  -0.00409  -0.27286  -0.49707
   0.00579  -0.06325  -0.11522
  -0.00095  -0.06325   0.70336
  -0.00095   0.38611  -0.11522
 vibration    14
   0.00011   0.00759  -0.00417
   0.00745   0.49701  -0.27289
  -0.01054   0.11520  -0.06325
   0.00173   0.11520   0.38615
   0.00173  -0.70328  -0.06325
 vibration    15
  -0.00866   0.00013   0.00000
  -0.56699   0.00850   0.00000
   0.80230   0.00197  -0.00000
  -0.13142   0.00197  -0.00000
  -0.13142  -0.01202  -0.00000
