[0] MPI startup(): Intel(R) MPI Library, Version 2021.10  Build 20230619 (id: c2e19c2f3e)
[0] MPI startup(): Copyright (C) 2003-2023 Intel Corporation.  All rights reserved.
[0] MPI startup(): library kind: release
[0] MPI startup(): libfabric version: 1.18.0-impi
[0] MPI startup(): libfabric provider: mlx
[0] MPI startup(): Load tuning file: "/leonardo/prod/spack/05/install/0.21/linux-rhel8-icelake/gcc-8.5.0/intel-oneapi-mpi-2021.10.0-6ff7efudnkj4xa7o4j67mxatygwzfwqc/mpi/2021.10.0/etc/tuning_icx_shm-ofi_mlx_100.dat"
[0] MPI startup(): Rank    Pid      Node name                Pin cpu
[0] MPI startup(): 0       2377008  lrdn3209.leonardo.local  {0}
[0] MPI startup(): I_MPI_ROOT=/leonardo/prod/spack/05/install/0.21/linux-rhel8-icelake/gcc-8.5.0/intel-oneapi-mpi-2021.10.0-6ff7efudnkj4xa7o4j67mxatygwzfwqc/mpi/2021.10.0
[0] MPI startup(): I_MPI_MPIRUN=mpirun
[0] MPI startup(): I_MPI_BIND_WIN_ALLOCATE=localalloc
[0] MPI startup(): I_MPI_HYDRA_TOPOLIB=hwloc
[0] MPI startup(): I_MPI_JOB_RESPECT_PROCESS_PLACEMENT=0
[0] MPI startup(): I_MPI_HYDRA_BOOTSTRAP=slurm
[0] MPI startup(): I_MPI_RETURN_WIN_MEM_NUMA=0
[0] MPI startup(): I_MPI_PIN_CELL=core
[0] MPI startup(): I_MPI_PIN_DOMAIN=omp
[0] MPI startup(): I_MPI_INTERNAL_MEM_POLICY=default
[0] MPI startup(): I_MPI_DEBUG=5

     Program PWSCF v.7.2 starts on  4Mar2024 at 15:30:35 
        Git branch: heads/qe-7.2
        Last git commit: b4c5e8deeb7d1863e7553a87b45f8d22c21926a5
        Last git commit date: Mon Mar 27 16:12:09 2023 +0000
        Last git commit subject: Merge branch 'merge_fix_hubbard' into 'develop'

     This program is part of the open-source Quantum ESPRESSO suite
     for quantum simulation of materials; please cite
         "P. Giannozzi et al., J. Phys.:Condens. Matter 21 395502 (2009);
         "P. Giannozzi et al., J. Phys.:Condens. Matter 29 465901 (2017);
         "P. Giannozzi et al., J. Chem. Phys. 152 154105 (2020);
          URL http://www.quantum-espresso.org", 
     in publications or presentations arising from this work. More details at
     http://www.quantum-espresso.org/quote

     Parallel version (MPI & OpenMP), running on       1 processor cores
     Number of MPI processes:                 1
     Threads/MPI process:                     1

     MPI processes distributed on     1 nodes
     506166 MiB available memory on the printing compute node when the environment starts
 
     Reading input from /leonardo_scratch/large/userexternal/obaseggi/workshop_ENCCS/Day-1_old/ex0-run/../inputs/atom-pbe.in

     Current dimensions of program PWSCF are:
     Max number of different atomic species (ntypx) = 10
     Max number of k-points (npk) =  40000
     Max angular momentum in pseudopotentials (lmaxx) =  4

     gamma-point specific algorithms are used
 
     Subspace diagonalization in iterative solution of the eigenvalue problem:
     a serial algorithm will be used

 
     G-vector sticks info
     --------------------
     sticks:   dense  smooth     PW     G-vecs:    dense   smooth      PW
     Sum        1597     793    193                47833    16879    2103
 
     Using Slab Decomposition
 


     bravais-lattice index     =            1
     lattice parameter (alat)  =      10.0000  a.u.
     unit-cell volume          =    1000.0000 (a.u.)^3
     number of atoms/cell      =            1
     number of atomic types    =            1
     number of electrons       =         6.00
     number of Kohn-Sham states=            6
     kinetic-energy cutoff     =      25.0000  Ry
     charge density cutoff     =     200.0000  Ry
     scf convergence threshold =      1.0E-08
     mixing beta               =       0.2500
     number of iterations used =            8  plain     mixing
     Exchange-correlation= SLA  PW   PBE  PBE
                           (   1   4   3   4   0   0   0)

     celldm(1)=  10.000000  celldm(2)=   0.000000  celldm(3)=   0.000000
     celldm(4)=   0.000000  celldm(5)=   0.000000  celldm(6)=   0.000000

     crystal axes: (cart. coord. in units of alat)
               a(1) = (   1.000000   0.000000   0.000000 )  
               a(2) = (   0.000000   1.000000   0.000000 )  
               a(3) = (   0.000000   0.000000   1.000000 )  

     reciprocal axes: (cart. coord. in units 2 pi/alat)
               b(1) = (  1.000000  0.000000  0.000000 )  
               b(2) = (  0.000000  1.000000  0.000000 )  
               b(3) = (  0.000000  0.000000  1.000000 )  


     PseudoPot. # 1 for O  read from file:
     /leonardo_scratch/large/userexternal/obaseggi/workshop_ENCCS/Day-1_old/ex0-run/../../pseudo/o_pbe_v1.2.uspp.F.UPF
     MD5 check sum: 734c27235a0248c51dbae37a1fbe46ec
     Pseudo is Ultrasoft + core correction, Zval =  6.0
     Generated by new atomic code, or converted to UPF format
     Using radial grid of  737 points,  5 beta functions with: 
                l(1) =   0
                l(2) =   0
                l(3) =   1
                l(4) =   1
                l(5) =   2
     Q(r) pseudized with  8 coefficients,  rinner =    0.900   0.900   0.900
                                                       0.900   0.900

     atomic species   valence    mass     pseudopotential
        O              6.00    15.99994     O ( 1.00)

     48 Sym. Ops., with inversion, found



   Cartesian axes

     site n.     atom                  positions (alat units)
         1           O   tau(   1) = (   0.0000000   0.0000000   0.0000000  )

     number of k points=     1
                       cart. coord. in units 2pi/alat
        k(    1) = (   0.0000000   0.0000000   0.0000000), wk =   2.0000000

     Dense  grid:    23917 G-vectors     FFT dimensions: (  45,  45,  45)

     Smooth grid:     8440 G-vectors     FFT dimensions: (  32,  32,  32)

     Occupations read from input 

        2.0000   1.3333   1.3333   1.3333   0.0000   0.0000

     Estimated max dynamical RAM per process >      61.36 MB

     Initial potential from superposition of free atoms

     starting charge       6.0000, renormalised to       6.0000

     negative rho (up, down):  8.318E-06 0.000E+00
     Starting wfcs are    4 randomized atomic wfcs +    2 random wfcs

     total cpu time spent up to now is        0.4 secs

     per-process dynamical memory:    26.3 Mb

     Self-consistent Calculation

     iteration #  1     ecut=    25.00 Ry     beta= 0.25
     Davidson diagonalization with overlap
     ethr =  1.00E-02,  avg # of iterations =  5.0

     Threshold (ethr) on eigenvalues was too large:
     Diagonalizing with lowered threshold

     Davidson diagonalization with overlap
     ethr =  3.19E-05,  avg # of iterations = 13.0

     negative rho (up, down):  9.499E-06 0.000E+00

     total cpu time spent up to now is        0.5 secs

     total energy              =     -31.73123217 Ry
     estimated scf accuracy    <       0.00198789 Ry

     iteration #  2     ecut=    25.00 Ry     beta= 0.25
     Davidson diagonalization with overlap
     ethr =  3.31E-05,  avg # of iterations =  1.0

     negative rho (up, down):  7.854E-05 0.000E+00

     total cpu time spent up to now is        0.6 secs

     total energy              =     -31.73118280 Ry
     estimated scf accuracy    <       0.00075472 Ry

     iteration #  3     ecut=    25.00 Ry     beta= 0.25
     Davidson diagonalization with overlap
     ethr =  1.26E-05,  avg # of iterations =  2.0

     negative rho (up, down):  2.945E-04 0.000E+00

     total cpu time spent up to now is        0.7 secs

     total energy              =     -31.73128134 Ry
     estimated scf accuracy    <       0.00010758 Ry

     iteration #  4     ecut=    25.00 Ry     beta= 0.25
     Davidson diagonalization with overlap
     ethr =  1.79E-06,  avg # of iterations =  9.0

     negative rho (up, down):  1.449E-04 0.000E+00

     total cpu time spent up to now is        0.7 secs

     total energy              =     -31.73128851 Ry
     estimated scf accuracy    <       0.00001100 Ry

     iteration #  5     ecut=    25.00 Ry     beta= 0.25
     Davidson diagonalization with overlap
     ethr =  1.83E-07,  avg # of iterations =  1.0

     negative rho (up, down):  9.465E-05 0.000E+00

     total cpu time spent up to now is        0.8 secs

     total energy              =     -31.73128808 Ry
     estimated scf accuracy    <       0.00000073 Ry

     iteration #  6     ecut=    25.00 Ry     beta= 0.25
     Davidson diagonalization with overlap
     ethr =  1.21E-08,  avg # of iterations =  2.0

     negative rho (up, down):  7.072E-05 0.000E+00

     total cpu time spent up to now is        0.9 secs

     total energy              =     -31.73128816 Ry
     estimated scf accuracy    <       0.00000003 Ry

     iteration #  7     ecut=    25.00 Ry     beta= 0.25
     Davidson diagonalization with overlap
     ethr =  5.21E-10,  avg # of iterations =  1.0

     negative rho (up, down):  3.988E-05 0.000E+00

     total cpu time spent up to now is        1.0 secs

     End of self-consistent calculation

          k = 0.0000 0.0000 0.0000 (  1052 PWs)   bands (ev):

   -23.3342  -8.2738  -8.2738  -8.2738  -0.5593   4.3552

     highest occupied, lowest unoccupied level (ev):    -8.2738   -0.5593

!    total energy              =     -31.73128866 Ry
     estimated scf accuracy    <          4.1E-09 Ry

     The total energy is the sum of the following terms:
     one-electron contribution =     -32.14523474 Ry
     hartree contribution      =      17.37480263 Ry
     xc contribution           =      -6.74658554 Ry
     ewald contribution        =     -10.21427100 Ry

     convergence has been achieved in   7 iterations


     Computing stress (Cartesian axis) and pressure


     negative rho (up, down):  3.988E-05 0.000E+00
          total   stress  (Ry/bohr**3)                   (kbar)     P=      -39.12
  -0.00026593   0.00000000   0.00000000          -39.12        0.00        0.00
   0.00000000  -0.00026593   0.00000000            0.00      -39.12        0.00
   0.00000000   0.00000000  -0.00026593            0.00        0.00      -39.12


     Writing all to output data dir ./pwscf.save/
 
     init_run     :      0.09s CPU      0.22s WALL (       1 calls)
     electrons    :      0.43s CPU      0.61s WALL (       1 calls)
     stress       :      0.14s CPU      0.16s WALL (       1 calls)

     Called by init_run:
     wfcinit      :      0.00s CPU      0.05s WALL (       1 calls)
     potinit      :      0.02s CPU      0.04s WALL (       1 calls)
     hinit0       :      0.04s CPU      0.10s WALL (       1 calls)

     Called by electrons:
     c_bands      :      0.02s CPU      0.03s WALL (       8 calls)
     sum_band     :      0.15s CPU      0.23s WALL (       8 calls)
     v_of_rho     :      0.16s CPU      0.17s WALL (       8 calls)
     newd         :      0.12s CPU      0.21s WALL (       8 calls)
     mix_rho      :      0.01s CPU      0.02s WALL (       8 calls)

     Called by c_bands:
     init_us_2    :      0.00s CPU      0.00s WALL (      17 calls)
     init_us_2:cp :      0.00s CPU      0.00s WALL (      17 calls)
     regterg      :      0.02s CPU      0.03s WALL (       8 calls)

     Called by *egterg:
     rdiaghg      :      0.00s CPU      0.04s WALL (      41 calls)
     h_psi        :      0.02s CPU      0.03s WALL (      43 calls)
     s_psi        :      0.00s CPU      0.00s WALL (      43 calls)
     g_psi        :      0.00s CPU      0.00s WALL (      34 calls)

     Called by h_psi:
     h_psi:calbec :      0.00s CPU      0.01s WALL (      43 calls)
     vloc_psi     :      0.02s CPU      0.02s WALL (      43 calls)
     add_vuspsi   :      0.00s CPU      0.01s WALL (      43 calls)

     General routines
     calbec       :      0.00s CPU      0.01s WALL (      52 calls)
     fft          :      0.04s CPU      0.08s WALL (      98 calls)
     ffts         :      0.00s CPU      0.00s WALL (      16 calls)
     fftw         :      0.01s CPU      0.01s WALL (     186 calls)
     interpolate  :      0.01s CPU      0.01s WALL (       8 calls)
 
     Parallel routines
 
     PWSCF        :      0.70s CPU      1.20s WALL

 
   This run was terminated on:  15:30:36   4Mar2024            

=------------------------------------------------------------------------------=
   JOB DONE.
=------------------------------------------------------------------------------=
