
     Program PHONON v.7.2 starts on 11Mar2024 at 12:22:36 

     This program is part of the open-source Quantum ESPRESSO suite
     for quantum simulation of materials; please cite
         "P. Giannozzi et al., J. Phys.:Condens. Matter 21 395502 (2009);
         "P. Giannozzi et al., J. Phys.:Condens. Matter 29 465901 (2017);
         "P. Giannozzi et al., J. Chem. Phys. 152 154105 (2020);
          URL http://www.quantum-espresso.org", 
     in publications or presentations arising from this work. More details at
     http://www.quantum-espresso.org/quote

     Parallel version (MPI & OpenMP), running on       8 processor cores
     Number of MPI processes:                 1
     Threads/MPI process:                     8

     MPI processes distributed on     1 nodes
     504820 MiB available memory on the printing compute node when the environment starts
 
     Reading input from ph.CnSnI3.recover.in
      Title line not specified: using 'default'.

     Reading xml data from directory:

     ./out/pwscf.save/
 
     Subspace diagonalization in iterative solution of the eigenvalue problem:
     a serial algorithm will be used


     IMPORTANT: XC functional enforced from input :
     Exchange-correlation= PBESOL
                           (   1   4  10   8   0   0   0)
     Any further DFT definition will be discarded
     Please, verify this is what you really want

 
     G-vector sticks info
     --------------------
     sticks:   dense  smooth     PW     G-vecs:    dense   smooth      PW
     Sum        3405    3405    941               150165   150165   21559
 
     Using Slab Decomposition
 
     Reading collected, re-writing distributed wavefunctions in ./out/
        1 /   1 q-points for this run, from  1 to  1:
       N       xq(1)         xq(2)         xq(3) 
       1   0.000000000   0.000000000   0.000000000
 

     Calculation of q =    0.0000000   0.0000000   0.0000000

     GPU acceleration is ACTIVE.
     GPU-aware MPI enabled


     Restart in Phonon calculation

     default                                                                    

     bravais-lattice index     =            0
     lattice parameter (alat)  =      11.6825  a.u.
     unit-cell volume          =    1555.1879 (a.u.)^3
     number of atoms/cell      =            5
     number of atomic types    =            3
     kinetic-energy cut-off    =      80.0000  Ry
     charge density cut-off    =     320.0000  Ry
     convergence threshold     =      1.0E-16
     beta                      =       0.7000
     number of iterations used =            4
     Exchange-correlation= PBESOL
                           (   1   4  10   8   0   0   0)


     celldm(1)=   11.68251  celldm(2)=    0.00000  celldm(3)=    0.00000
     celldm(4)=    0.00000  celldm(5)=    0.00000  celldm(6)=    0.00000

     crystal axes: (cart. coord. in units of alat)
               a(1) = (  0.9917  0.0000  0.0000 )  
               a(2) = (  0.0000  0.9917  0.0000 )  
               a(3) = (  0.0000  0.0000  0.9917 )  

     reciprocal axes: (cart. coord. in units 2 pi/alat)
               b(1) = (  1.0083  0.0000  0.0000 )  
               b(2) = (  0.0000  1.0083  0.0000 )  
               b(3) = (  0.0000  0.0000  1.0083 )  


     Atoms inside the unit cell: 

     Cartesian axes

     site n.  atom      mass           positions (alat units)
        1     Cs 132.9055   tau(    1) = (    0.49586    0.49586    0.49586  )
        2     Sn 118.7100   tau(    2) = (    0.00000    0.00000    0.00000  )
        3     I  126.9045   tau(    3) = (    0.49586    0.00000    0.00000  )
        4     I  126.9045   tau(    4) = (    0.00000    0.00000    0.49586  )
        5     I  126.9045   tau(    5) = (    0.00000    0.49586    0.00000  )

     Computing dynamical matrix for 
                    q = (   0.0000000   0.0000000   0.0000000 )
 
     49 Sym.Ops. (with q -> -q+G )


     G cutoff = 1106.2746  ( 150165 G-vectors)     FFT grid: ( 72, 72, 72)
     number of k points=    20
                       cart. coord. in units 2pi/alat
        k(    1) = (   0.0630215   0.0630215   0.0630215), wk =   0.0312500
        k(    2) = (   0.0630215   0.0630215   0.1890645), wk =   0.0937500
        k(    3) = (   0.0630215   0.0630215   0.3151075), wk =   0.0937500
        k(    4) = (   0.0630215   0.0630215   0.4411505), wk =   0.0937500
        k(    5) = (   0.0630215   0.1890645   0.1890645), wk =   0.0937500
        k(    6) = (   0.0630215   0.1890645   0.3151075), wk =   0.1875000
        k(    7) = (   0.0630215   0.1890645   0.4411505), wk =   0.1875000
        k(    8) = (   0.0630215   0.3151075   0.3151075), wk =   0.0937500
        k(    9) = (   0.0630215   0.3151075   0.4411505), wk =   0.1875000
        k(   10) = (   0.0630215   0.4411505   0.4411505), wk =   0.0937500
        k(   11) = (   0.1890645   0.1890645   0.1890645), wk =   0.0312500
        k(   12) = (   0.1890645   0.1890645   0.3151075), wk =   0.0937500
        k(   13) = (   0.1890645   0.1890645   0.4411505), wk =   0.0937500
        k(   14) = (   0.1890645   0.3151075   0.3151075), wk =   0.0937500
        k(   15) = (   0.1890645   0.3151075   0.4411505), wk =   0.1875000
        k(   16) = (   0.1890645   0.4411505   0.4411505), wk =   0.0937500
        k(   17) = (   0.3151075   0.3151075   0.3151075), wk =   0.0312500
        k(   18) = (   0.3151075   0.3151075   0.4411505), wk =   0.0937500
        k(   19) = (   0.3151075   0.4411505   0.4411505), wk =   0.0937500
        k(   20) = (   0.4411505   0.4411505   0.4411505), wk =   0.0312500

     PseudoPot. # 1 for Cs read from file:
     ../pseudo/Cs-nc-pbesol.upf
     MD5 check sum: 9d2f2206a14dc5b3b3f3fbfae186bed4
     Pseudo is Norm-conserving + core correction, Zval =  9.0
     Generated using ONCVPSP code by D. R. Hamann
     Using radial grid of 2384 points,  8 beta functions with: 
                l(1) =   0
                l(2) =   0
                l(3) =   1
                l(4) =   1
                l(5) =   2
                l(6) =   2
                l(7) =   3
                l(8) =   3

     PseudoPot. # 2 for Sn read from file:
     ../pseudo/Sn-nc-pbesol.upf
     MD5 check sum: c2995d571af40102bfea7461443d92cf
     Pseudo is Norm-conserving + core correction, Zval = 14.0
     Generated using ONCVPSP code by D. R. Hamann
     Using radial grid of 1628 points,  6 beta functions with: 
                l(1) =   0
                l(2) =   0
                l(3) =   1
                l(4) =   1
                l(5) =   2
                l(6) =   2

     PseudoPot. # 3 for I  read from file:
     ../pseudo/I-nc-pbesol.upf
     MD5 check sum: 80ed5ceb2eb9c553cfb6760a299d9c5b
     Pseudo is Norm-conserving + core correction, Zval =  7.0
     Generated using ONCVPSP code by D. R. Hamann
     Using radial grid of 1182 points,  6 beta functions with: 
                l(1) =   0
                l(2) =   0
                l(3) =   1
                l(4) =   1
                l(5) =   2
                l(6) =   2

     Mode symmetry, O_h (m-3m)  point group:


     Atomic displacements:
     There are    5 irreducible representations

     Representation     1      3 modes -  Done

     Representation     2      3 modes -  Done

     Representation     3      3 modes -  Done

     Representation     4      3 modes -  Done

     Representation     5      3 modes -  Done


     PHONON       :      0.68s CPU      0.71s WALL

 
     Number of q in the star =    1
     List of q in the star:
          1   0.000000000   0.000000000   0.000000000

     Diagonalizing the dynamical matrix

     q = (    0.000000000   0.000000000   0.000000000 ) 

 **************************************************************************
     freq (    1) =      -0.154653 [THz] =      -5.158658 [cm-1]
     freq (    2) =      -0.154653 [THz] =      -5.158658 [cm-1]
     freq (    3) =      -0.154653 [THz] =      -5.158658 [cm-1]
     freq (    4) =       0.242573 [THz] =       8.091352 [cm-1]
     freq (    5) =       0.242573 [THz] =       8.091352 [cm-1]
     freq (    6) =       0.242573 [THz] =       8.091352 [cm-1]
     freq (    7) =       0.693998 [THz] =      23.149277 [cm-1]
     freq (    8) =       0.693998 [THz] =      23.149277 [cm-1]
     freq (    9) =       0.693998 [THz] =      23.149277 [cm-1]
     freq (   10) =       1.159416 [THz] =      38.673946 [cm-1]
     freq (   11) =       1.159416 [THz] =      38.673946 [cm-1]
     freq (   12) =       1.159416 [THz] =      38.673946 [cm-1]
     freq (   13) =       2.344153 [THz] =      78.192524 [cm-1]
     freq (   14) =       2.344153 [THz] =      78.192524 [cm-1]
     freq (   15) =       2.344153 [THz] =      78.192524 [cm-1]
 **************************************************************************

     Mode symmetry, O_h (m-3m)  point group:

     freq (   1-   3) =         -5.2  [cm-1]   --> T_1u G_15  G_4- I  
     freq (   4-   6) =          8.1  [cm-1]   --> T_1u G_15  G_4- I  
     freq (   7-   9) =         23.1  [cm-1]   --> T_2u G_25  G_5-    
     freq (  10-  12) =         38.7  [cm-1]   --> T_1u G_15  G_4- I  
     freq (  13-  15) =         78.2  [cm-1]   --> T_1u G_15  G_4- I  
 
     PHONON       :      0.69s CPU      0.73s WALL

     INITIALIZATION: 
     phq_setup    :      0.01s CPU      0.02s WALL (       1 calls)
 
     init_vloc    :      0.01s CPU      0.01s WALL (       1 calls)
     init_us_1    :      0.02s CPU      0.02s WALL (       1 calls)
 
     DYNAMICAL MATRIX:
     phqscf       :      0.00s CPU      0.00s WALL (       1 calls)
     dynmatrix    :      0.01s CPU      0.00s WALL (       1 calls)
 
     phqscf       :      0.00s CPU      0.00s WALL (       1 calls)
 
 
 
 
      General routines
     fft          :      0.01s CPU      0.01s WALL (      14 calls)
                                        0.01s GPU  (      14 calls)
     davcio       :      0.00s CPU      0.05s WALL (      20 calls)
 
      Additional routines
 
 
     PHONON       :      0.69s CPU      0.73s WALL

 
   This run was terminated on:  12:22:37  11Mar2024            

=------------------------------------------------------------------------------=
   JOB DONE.
=------------------------------------------------------------------------------=
