
     Program PWSCF v.7.2 starts on 18Feb2024 at 17:56: 0 

     This program is part of the open-source Quantum ESPRESSO suite
     for quantum simulation of materials; please cite
         "P. Giannozzi et al., J. Phys.:Condens. Matter 21 395502 (2009);
         "P. Giannozzi et al., J. Phys.:Condens. Matter 29 465901 (2017);
         "P. Giannozzi et al., J. Chem. Phys. 152 154105 (2020);
          URL http://www.quantum-espresso.org", 
     in publications or presentations arising from this work. More details at
     http://www.quantum-espresso.org/quote

     Parallel version (MPI & OpenMP), running on       8 processor cores
     Number of MPI processes:                 1
     Threads/MPI process:                     8

     MPI processes distributed on     1 nodes
     473189 MiB available memory on the printing compute node when the environment starts
 
     Reading input from pw.CnSnI3.in

     Current dimensions of program PWSCF are:
     Max number of different atomic species (ntypx) = 10
     Max number of k-points (npk) =  40000
     Max angular momentum in pseudopotentials (lmaxx) =  4
     Message from routine setup:
     using ibrav=0 with symmetry is DISCOURAGED, use correct ibrav instead
 
     Subspace diagonalization in iterative solution of the eigenvalue problem:
     a serial algorithm will be used

 
     G-vector sticks info
     --------------------
     sticks:   dense  smooth     PW     G-vecs:    dense   smooth      PW
     Sum        3489    3489    949               154275   154275   22119
 
     Using Slab Decomposition
 


     bravais-lattice index     =            0
     lattice parameter (alat)  =      11.6825  a.u.
     unit-cell volume          =    1594.4431 (a.u.)^3
     number of atoms/cell      =            5
     number of atomic types    =            3
     number of electrons       =        44.00
     number of Kohn-Sham states=           22
     kinetic-energy cutoff     =      80.0000  Ry
     charge density cutoff     =     320.0000  Ry
     scf convergence threshold =      1.0E-14
     mixing beta               =       0.7000
     number of iterations used =            8  plain     mixing
     energy convergence thresh.=      1.0E-04
     force convergence thresh. =      1.0E-03
     press convergence thresh. =      5.0E-02
     Exchange-correlation= PBESOL
                           (   1   4  10   8   0   0   0)
     nstep                     =           50


     GPU acceleration is ACTIVE.
     GPU-aware MPI enabled


     celldm(1)=  11.682515  celldm(2)=   0.000000  celldm(3)=   0.000000
     celldm(4)=   0.000000  celldm(5)=   0.000000  celldm(6)=   0.000000

     crystal axes: (cart. coord. in units of alat)
               a(1) = (   1.000000   0.000000   0.000000 )  
               a(2) = (   0.000000   1.000000   0.000000 )  
               a(3) = (   0.000000   0.000000   1.000000 )  

     reciprocal axes: (cart. coord. in units 2 pi/alat)
               b(1) = (  1.000000  0.000000  0.000000 )  
               b(2) = (  0.000000  1.000000  0.000000 )  
               b(3) = (  0.000000  0.000000  1.000000 )  


     PseudoPot. # 1 for Cs read from file:
     ../../../pseudo/Cs-nc-pbesol.upf
     MD5 check sum: 9d2f2206a14dc5b3b3f3fbfae186bed4
     Pseudo is Norm-conserving + core correction, Zval =  9.0
     Generated using ONCVPSP code by D. R. Hamann
     Using radial grid of 2384 points,  8 beta functions with: 
                l(1) =   0
                l(2) =   0
                l(3) =   1
                l(4) =   1
                l(5) =   2
                l(6) =   2
                l(7) =   3
                l(8) =   3

     PseudoPot. # 2 for Sn read from file:
     ../../../pseudo/Sn-nc-pbesol.upf
     MD5 check sum: c2995d571af40102bfea7461443d92cf
     Pseudo is Norm-conserving + core correction, Zval = 14.0
     Generated using ONCVPSP code by D. R. Hamann
     Using radial grid of 1628 points,  6 beta functions with: 
                l(1) =   0
                l(2) =   0
                l(3) =   1
                l(4) =   1
                l(5) =   2
                l(6) =   2

     PseudoPot. # 3 for I  read from file:
     ../../../pseudo/I-nc-pbesol.upf
     MD5 check sum: 80ed5ceb2eb9c553cfb6760a299d9c5b
     Pseudo is Norm-conserving + core correction, Zval =  7.0
     Generated using ONCVPSP code by D. R. Hamann
     Using radial grid of 1182 points,  6 beta functions with: 
                l(1) =   0
                l(2) =   0
                l(3) =   1
                l(4) =   1
                l(5) =   2
                l(6) =   2

     atomic species   valence    mass     pseudopotential
        Cs             9.00   132.90545     Cs( 1.00)
        Sn            14.00   118.71000     Sn( 1.00)
        I              7.00   126.90447     I ( 1.00)

     48 Sym. Ops., with inversion, found



   Cartesian axes

     site n.     atom                  positions (alat units)
         1           Cs  tau(   1) = (   0.5000000   0.5000000   0.5000000  )
         2           Sn  tau(   2) = (   0.0000000   0.0000000   0.0000000  )
         3           I   tau(   3) = (   0.5000000   0.0000000   0.0000000  )
         4           I   tau(   4) = (   0.0000000   0.0000000   0.5000000  )
         5           I   tau(   5) = (   0.0000000   0.5000000   0.0000000  )

     number of k points=    20
                       cart. coord. in units 2pi/alat
        k(    1) = (   0.0625000   0.0625000   0.0625000), wk =   0.0312500
        k(    2) = (   0.0625000   0.0625000   0.1875000), wk =   0.0937500
        k(    3) = (   0.0625000   0.0625000   0.3125000), wk =   0.0937500
        k(    4) = (   0.0625000   0.0625000   0.4375000), wk =   0.0937500
        k(    5) = (   0.0625000   0.1875000   0.1875000), wk =   0.0937500
        k(    6) = (   0.0625000   0.1875000   0.3125000), wk =   0.1875000
        k(    7) = (   0.0625000   0.1875000   0.4375000), wk =   0.1875000
        k(    8) = (   0.0625000   0.3125000   0.3125000), wk =   0.0937500
        k(    9) = (   0.0625000   0.3125000   0.4375000), wk =   0.1875000
        k(   10) = (   0.0625000   0.4375000   0.4375000), wk =   0.0937500
        k(   11) = (   0.1875000   0.1875000   0.1875000), wk =   0.0312500
        k(   12) = (   0.1875000   0.1875000   0.3125000), wk =   0.0937500
        k(   13) = (   0.1875000   0.1875000   0.4375000), wk =   0.0937500
        k(   14) = (   0.1875000   0.3125000   0.3125000), wk =   0.0937500
        k(   15) = (   0.1875000   0.3125000   0.4375000), wk =   0.1875000
        k(   16) = (   0.1875000   0.4375000   0.4375000), wk =   0.0937500
        k(   17) = (   0.3125000   0.3125000   0.3125000), wk =   0.0312500
        k(   18) = (   0.3125000   0.3125000   0.4375000), wk =   0.0937500
        k(   19) = (   0.3125000   0.4375000   0.4375000), wk =   0.0937500
        k(   20) = (   0.4375000   0.4375000   0.4375000), wk =   0.0312500

     Dense  grid:   154275 G-vectors     FFT dimensions: (  72,  72,  72)

     Estimated max dynamical RAM per process >     312.25 MB

     Initial potential from superposition of free atoms

     starting charge      43.9618, renormalised to      44.0000
     Starting wfcs are   26 randomized atomic wfcs

     total cpu time spent up to now is        4.0 secs

     per-process dynamical memory:  1867.9 Mb

     Self-consistent Calculation

     iteration #  1     ecut=    80.00 Ry     beta= 0.70
     Davidson diagonalization with overlap
     ethr =  1.00E-02,  avg # of iterations =  1.8

     Threshold (ethr) on eigenvalues was too large:
     Diagonalizing with lowered threshold

     Davidson diagonalization with overlap
     ethr =  1.67E-04,  avg # of iterations =  3.8

     total cpu time spent up to now is        4.9 secs

     total energy              =    -282.02805903 Ry
     estimated scf accuracy    <       0.06053050 Ry

     iteration #  2     ecut=    80.00 Ry     beta= 0.70
     Davidson diagonalization with overlap
     ethr =  1.38E-04,  avg # of iterations =  3.0

     total cpu time spent up to now is        5.3 secs

     total energy              =    -282.04824615 Ry
     estimated scf accuracy    <       0.01645379 Ry

     iteration #  3     ecut=    80.00 Ry     beta= 0.70
     Davidson diagonalization with overlap
     ethr =  3.74E-05,  avg # of iterations =  2.2

     total cpu time spent up to now is        5.7 secs

     total energy              =    -282.05119402 Ry
     estimated scf accuracy    <       0.00032918 Ry

     iteration #  4     ecut=    80.00 Ry     beta= 0.70
     Davidson diagonalization with overlap
     ethr =  7.48E-07,  avg # of iterations =  4.8

     total cpu time spent up to now is        6.3 secs

     total energy              =    -282.05139284 Ry
     estimated scf accuracy    <       0.00018480 Ry

     iteration #  5     ecut=    80.00 Ry     beta= 0.70
     Davidson diagonalization with overlap
     ethr =  4.20E-07,  avg # of iterations =  2.3

     total cpu time spent up to now is        6.7 secs

     total energy              =    -282.05142430 Ry
     estimated scf accuracy    <       0.00000464 Ry

     iteration #  6     ecut=    80.00 Ry     beta= 0.70
     Davidson diagonalization with overlap
     ethr =  1.06E-08,  avg # of iterations =  6.0

     total cpu time spent up to now is        7.4 secs

     total energy              =    -282.05143054 Ry
     estimated scf accuracy    <       0.00000363 Ry

     iteration #  7     ecut=    80.00 Ry     beta= 0.70
     Davidson diagonalization with overlap
     ethr =  8.26E-09,  avg # of iterations =  2.3

     total cpu time spent up to now is        7.8 secs

     total energy              =    -282.05143145 Ry
     estimated scf accuracy    <          3.6E-09 Ry

     iteration #  8     ecut=    80.00 Ry     beta= 0.70
     Davidson diagonalization with overlap
     ethr =  8.21E-12,  avg # of iterations = 12.5

     total cpu time spent up to now is        9.0 secs

     total energy              =    -282.05143151 Ry
     estimated scf accuracy    <          3.6E-09 Ry

     iteration #  9     ecut=    80.00 Ry     beta= 0.70
     Davidson diagonalization with overlap
     ethr =  8.21E-12,  avg # of iterations =  2.2

     total cpu time spent up to now is        9.4 secs

     total energy              =    -282.05143151 Ry
     estimated scf accuracy    <          1.5E-11 Ry

     iteration # 10     ecut=    80.00 Ry     beta= 0.70
     Davidson diagonalization with overlap
     ethr =  1.00E-13,  avg # of iterations =  6.3

     total cpu time spent up to now is       10.1 secs

     total energy              =    -282.05143151 Ry
     estimated scf accuracy    <          6.8E-13 Ry

     iteration # 11     ecut=    80.00 Ry     beta= 0.70
     Davidson diagonalization with overlap
     ethr =  1.00E-13,  avg # of iterations =  1.1

     total cpu time spent up to now is       10.4 secs

     total energy              =    -282.05143151 Ry
     estimated scf accuracy    <          1.2E-12 Ry

     iteration # 12     ecut=    80.00 Ry     beta= 0.70
     Davidson diagonalization with overlap
     ethr =  1.00E-13,  avg # of iterations =  1.0

     total cpu time spent up to now is       10.8 secs

     total energy              =    -282.05143151 Ry
     estimated scf accuracy    <          2.3E-13 Ry

     iteration # 13     ecut=    80.00 Ry     beta= 0.70
     Davidson diagonalization with overlap
     ethr =  1.00E-13,  avg # of iterations =  1.0

     total cpu time spent up to now is       11.1 secs

     total energy              =    -282.05143151 Ry
     estimated scf accuracy    <          2.2E-14 Ry

     iteration # 14     ecut=    80.00 Ry     beta= 0.70
     Davidson diagonalization with overlap
     ethr =  1.00E-13,  avg # of iterations =  1.0

     total cpu time spent up to now is       11.5 secs

     End of self-consistent calculation

          k = 0.0625 0.0625 0.0625 ( 19297 PWs)   bands (ev):

   -17.9690 -17.7075 -17.7075 -17.6856 -17.6856 -17.6856  -9.0513  -8.3289
    -8.3289  -4.7333  -4.7333  -4.7307  -2.1434  -0.4425  -0.4425  -0.2951
     1.9029   1.9029   1.9677   2.0592   2.1107   2.1107

          k = 0.0625 0.0625 0.1875 ( 19308 PWs)   bands (ev):

   -17.9688 -17.7075 -17.7070 -17.6857 -17.6857 -17.6856  -9.0105  -8.3782
    -8.3279  -4.7316  -4.7316  -4.7253  -2.4616  -0.4127  -0.3700   0.2286
     1.7882   1.8371   1.9709   2.0099   2.0762   2.1127

          k = 0.0625 0.0625 0.3125 ( 19280 PWs)   bands (ev):

   -17.9687 -17.7075 -17.7063 -17.6857 -17.6857 -17.6856  -8.9386  -8.4622
    -8.3266  -4.7291  -4.7282  -4.7194  -2.7625  -0.3678  -0.3207   0.8503
     1.6609   1.7578   1.9406   1.9794   2.0308   2.2293

          k = 0.0625 0.0625 0.4375 ( 19257 PWs)   bands (ev):

   -17.9686 -17.7075 -17.7058 -17.6858 -17.6858 -17.6856  -8.8664  -8.5430
    -8.3256  -4.7274  -4.7254  -4.7162  -2.9262  -0.3338  -0.2853   1.1159
     1.5773   1.7320   1.9090   1.9402   2.0039   2.6412

          k = 0.0625 0.1875 0.1875 ( 19281 PWs)   bands (ev):

   -17.9687 -17.7073 -17.7068 -17.6857 -17.6857 -17.6857  -8.9703  -8.3967
    -8.3540  -4.7323  -4.7303  -4.7213  -2.7362  -0.3658  -0.0357   0.4233
     1.6204   1.7831   1.9461   2.0092   2.0883   2.1704

          k = 0.0625 0.1875 0.3125 ( 19271 PWs)   bands (ev):

   -17.9686 -17.7072 -17.7061 -17.6858 -17.6857 -17.6857  -8.8991  -8.4662
    -8.3619  -4.7311  -4.7278  -4.7191  -3.0154  -0.3160   0.1352   0.8648
     1.4918   1.7164   1.9015   2.0049   2.1407   2.2941

          k = 0.0625 0.1875 0.4375 ( 19250 PWs)   bands (ev):

   -17.9684 -17.7072 -17.7056 -17.6858 -17.6858 -17.6857  -8.8262  -8.5432
    -8.3624  -4.7297  -4.7243  -4.7201  -3.1722  -0.2782   0.1988   1.0258
     1.4659   1.7325   1.8338   2.0016   2.1405   2.7154

          k = 0.0625 0.3125 0.3125 ( 19258 PWs)   bands (ev):

   -17.9684 -17.7069 -17.7057 -17.6858 -17.6857 -17.6857  -8.8284  -8.4879
    -8.4109  -4.7321  -4.7273  -4.7202  -3.2850  -0.2589   0.6649   0.8945
     1.3970   1.6559   1.8268   1.9790   2.3308   2.4635

          k = 0.0625 0.3125 0.4375 ( 19255 PWs)   bands (ev):

   -17.9683 -17.7068 -17.7053 -17.6859 -17.6858 -17.6857  -8.7526  -8.5438
    -8.4309  -4.7316  -4.7275  -4.7218  -3.4406  -0.2152   0.8637   0.9121
     1.4364   1.6586   1.7630   1.9517   2.3756   2.9212

          k = 0.0625 0.4375 0.4375 ( 19253 PWs)   bands (ev):

   -17.9682 -17.7067 -17.7049 -17.6859 -17.6858 -17.6858  -8.6649  -8.5496
    -8.5099  -4.7325  -4.7314  -4.7214  -3.5977  -0.1664   0.8157   1.3461
     1.4399   1.6206   1.7426   1.8616   2.5129   3.3219

          k = 0.1875 0.1875 0.1875 ( 19267 PWs)   bands (ev):

   -17.9686 -17.7068 -17.7068 -17.6857 -17.6857 -17.6857  -8.9312  -8.3953
    -8.3953  -4.7331  -4.7331  -4.7173  -2.9844  -0.0012  -0.0012   0.5625
     1.5875   1.5875   1.8959   2.1193   2.1641   2.1641

          k = 0.1875 0.1875 0.3125 ( 19261 PWs)   bands (ev):

   -17.9685 -17.7068 -17.7061 -17.6858 -17.6858 -17.6857  -8.8618  -8.4679
    -8.3932  -4.7343  -4.7323  -4.7170  -3.2494   0.0524   0.2547   0.8753
     1.4079   1.5549   1.9688   2.1331   2.1927   2.3076

          k = 0.1875 0.1875 0.4375 ( 19273 PWs)   bands (ev):

   -17.9683 -17.7068 -17.7056 -17.6858 -17.6858 -17.6857  -8.7895  -8.5426
    -8.3918  -4.7351  -4.7280  -4.7209  -3.4021   0.0948   0.3473   0.9988
     1.2996   1.6217   1.9637   2.1227   2.2085   2.7574

          k = 0.1875 0.3125 0.3125 ( 19248 PWs)   bands (ev):

   -17.9683 -17.7064 -17.7057 -17.6858 -17.6858 -17.6858  -8.7953  -8.4860
    -8.4358  -4.7362  -4.7361  -4.7194  -3.5085   0.1919   0.7006   0.9047
     1.3016   1.4439   2.0424   2.1749   2.3306   2.4496

          k = 0.1875 0.3125 0.4375 ( 19263 PWs)   bands (ev):

   -17.9682 -17.7063 -17.7053 -17.6859 -17.6858 -17.6858  -8.7231  -8.5422
    -8.4476  -4.7388  -4.7345  -4.7244  -3.6614   0.2491   0.8932   0.9387
     1.2329   1.4911   2.0351   2.1573   2.3854   2.9371

          k = 0.1875 0.4375 0.4375 ( 19247 PWs)   bands (ev):

   -17.9681 -17.7062 -17.7049 -17.6859 -17.6858 -17.6858  -8.6445  -8.5472
    -8.5135  -4.7389  -4.7388  -4.7292  -3.8163   0.3150   0.8603   1.1986
     1.2240   1.6062   2.0479   2.1000   2.5175   3.3496

          k = 0.3125 0.3125 0.3125 ( 19282 PWs)   bands (ev):

   -17.9681 -17.7057 -17.7057 -17.6858 -17.6858 -17.6858  -8.7363  -8.4831
    -8.4831  -4.7420  -4.7420  -4.7250  -3.7640   0.7658   0.7658   0.9243
     1.2478   1.2478   2.3074   2.3074   2.3546   2.5324

          k = 0.3125 0.3125 0.4375 ( 19253 PWs)   bands (ev):

   -17.9680 -17.7057 -17.7052 -17.6859 -17.6859 -17.6858  -8.6709  -8.5403
    -8.4811  -4.7461  -4.7425  -4.7324  -3.9178   0.8388   0.9387   0.9966
     1.1088   1.3870   2.2772   2.3176   2.4268   3.0554

          k = 0.3125 0.4375 0.4375 ( 19251 PWs)   bands (ev):

   -17.9679 -17.7054 -17.7049 -17.6859 -17.6859 -17.6859  -8.6105  -8.5439
    -8.5231  -4.7486  -4.7477  -4.7410  -4.0739   0.9244   0.9966   1.0650
     1.1034   1.6076   2.3406   2.3521   2.5246   3.4508

          k = 0.4375 0.4375 0.4375 ( 19310 PWs)   bands (ev):

   -17.9678 -17.7049 -17.7049 -17.6859 -17.6859 -17.6859  -8.5744  -8.5415
    -8.5415  -4.7539  -4.7539  -4.7508  -4.2323   0.9644   0.9929   0.9929
     1.6106   1.6106   2.5076   2.5076   2.5395   3.7759

     highest occupied level (ev):     3.7759

!    total energy              =    -282.05143151 Ry
     estimated scf accuracy    <          2.5E-16 Ry

     The total energy is the sum of the following terms:
     one-electron contribution =    -118.30441805 Ry
     hartree contribution      =      75.84562361 Ry
     xc contribution           =     -80.98255363 Ry
     ewald contribution        =    -158.61008344 Ry

     convergence has been achieved in  14 iterations

     Forces acting on atoms (cartesian axes, Ry/au):

     atom    1 type  1   force =     0.00000000    0.00000000    0.00000000
     atom    2 type  2   force =     0.00000000    0.00000000    0.00000000
     atom    3 type  3   force =     0.00000000    0.00000000    0.00000000
     atom    4 type  3   force =     0.00000000    0.00000000    0.00000000
     atom    5 type  3   force =     0.00000000    0.00000000    0.00000000
     The non-local contrib.  to forces
     atom    1 type  1   force =     0.00000000    0.00000000    0.00000000
     atom    2 type  2   force =     0.00000000    0.00000000    0.00000000
     atom    3 type  3   force =     0.00000000    0.00000000    0.00000000
     atom    4 type  3   force =     0.00000000    0.00000000    0.00000000
     atom    5 type  3   force =     0.00000000    0.00000000    0.00000000
     The ionic contribution  to forces
     atom    1 type  1   force =    -0.00000000   -0.00000000    0.00000000
     atom    2 type  2   force =    -0.00000000   -0.00000000   -0.00000000
     atom    3 type  3   force =     0.00000000   -0.00000000   -0.00000000
     atom    4 type  3   force =    -0.00000000   -0.00000000    0.00000000
     atom    5 type  3   force =    -0.00000000    0.00000000   -0.00000000
     The local contribution  to forces
     atom    1 type  1   force =     0.00000000    0.00000000    0.00000000
     atom    2 type  2   force =     0.00000000    0.00000000   -0.00000000
     atom    3 type  3   force =    -0.00000000    0.00000000   -0.00000000
     atom    4 type  3   force =    -0.00000000   -0.00000000   -0.00000000
     atom    5 type  3   force =    -0.00000000   -0.00000000   -0.00000000
     The core correction contribution to forces
     atom    1 type  1   force =    -0.00000000   -0.00000000   -0.00000000
     atom    2 type  2   force =     0.00000000    0.00000000    0.00000000
     atom    3 type  3   force =    -0.00000000    0.00000000    0.00000000
     atom    4 type  3   force =     0.00000000    0.00000000   -0.00000000
     atom    5 type  3   force =     0.00000000   -0.00000000    0.00000000
     The Hubbard contrib.    to forces
     atom    1 type  1   force =     0.00000000    0.00000000    0.00000000
     atom    2 type  2   force =     0.00000000    0.00000000    0.00000000
     atom    3 type  3   force =     0.00000000    0.00000000    0.00000000
     atom    4 type  3   force =     0.00000000    0.00000000    0.00000000
     atom    5 type  3   force =     0.00000000    0.00000000    0.00000000
     The SCF correction term to forces
     atom    1 type  1   force =    -0.00000000   -0.00000000   -0.00000000
     atom    2 type  2   force =     0.00000000   -0.00000000    0.00000000
     atom    3 type  3   force =     0.00000000    0.00000000   -0.00000000
     atom    4 type  3   force =    -0.00000000   -0.00000000   -0.00000000
     atom    5 type  3   force =    -0.00000000   -0.00000000   -0.00000000

     Total force =     0.000000     Total SCF correction =     0.000000


     Computing stress (Cartesian axis) and pressure

          total   stress  (Ry/bohr**3)                   (kbar)     P=       -4.21
  -0.00002860   0.00000000   0.00000000           -4.21        0.00        0.00
   0.00000000  -0.00002860   0.00000000            0.00       -4.21        0.00
   0.00000000   0.00000000  -0.00002860            0.00        0.00       -4.21


     BFGS Geometry Optimization
     Energy error            =      0.0E+00 Ry
     Gradient error          =      0.0E+00 Ry/Bohr
     Cell gradient error     =      4.2E+00 kbar

     number of scf cycles    =   1
     number of bfgs steps    =   0

     enthalpy           new  =    -282.0514315150 Ry

     new trust radius        =       0.0057094405 bohr
     new conv_thr            =            1.0E-14 Ry

     new unit-cell volume =   1591.02585 a.u.^3 (   235.76571 Ang^3 )
     density =      4.45360 g/cm^3

CELL_PARAMETERS (angstrom)
   6.177700904   0.000000000   0.000000000
   0.000000000   6.177700904   0.000000000
   0.000000000   0.000000000   6.177700904

ATOMIC_POSITIONS (angstrom)
Cs            3.0888504518        3.0888504518        3.0888504518
Sn            0.0000000000        0.0000000000        0.0000000000
I             3.0888504518        0.0000000000        0.0000000000
I             0.0000000000        0.0000000000        3.0888504518
I             0.0000000000        3.0888504518        0.0000000000



     Writing config-only to output data dir ./out/pwscf.save/
     NEW-OLD atomic charge density approx. for the potential
     extrapolated charge   43.90558, renormalised to   44.00000

     total cpu time spent up to now is       14.1 secs

     per-process dynamical memory:  1943.4 Mb

     Self-consistent Calculation

     iteration #  1     ecut=    80.00 Ry     beta= 0.70
     Davidson diagonalization with overlap
     ethr =  1.00E-06,  avg # of iterations =  3.1

     total cpu time spent up to now is       14.6 secs

     total energy              =    -282.05101467 Ry
     estimated scf accuracy    <       0.00028474 Ry

     iteration #  2     ecut=    80.00 Ry     beta= 0.70
     Davidson diagonalization with overlap
     ethr =  6.47E-07,  avg # of iterations =  5.0

     total cpu time spent up to now is       15.2 secs

     total energy              =    -282.05152227 Ry
     estimated scf accuracy    <       0.00049467 Ry

     iteration #  3     ecut=    80.00 Ry     beta= 0.70
     Davidson diagonalization with overlap
     ethr =  6.47E-07,  avg # of iterations =  2.0

     total cpu time spent up to now is       15.6 secs

     total energy              =    -282.05153857 Ry
     estimated scf accuracy    <       0.00009385 Ry

     iteration #  4     ecut=    80.00 Ry     beta= 0.70
     Davidson diagonalization with overlap
     ethr =  2.13E-07,  avg # of iterations =  2.0

     total cpu time spent up to now is       16.0 secs

     total energy              =    -282.05153246 Ry
     estimated scf accuracy    <       0.00004364 Ry

     iteration #  5     ecut=    80.00 Ry     beta= 0.70
     Davidson diagonalization with overlap
     ethr =  9.92E-08,  avg # of iterations =  1.6

     total cpu time spent up to now is       16.3 secs

     total energy              =    -282.05152166 Ry
     estimated scf accuracy    <       0.00002400 Ry

     iteration #  6     ecut=    80.00 Ry     beta= 0.70
     Davidson diagonalization with overlap
     ethr =  5.46E-08,  avg # of iterations =  2.8

     total cpu time spent up to now is       16.8 secs

     total energy              =    -282.05152443 Ry
     estimated scf accuracy    <       0.00000214 Ry

     iteration #  7     ecut=    80.00 Ry     beta= 0.70
     Davidson diagonalization with overlap
     ethr =  4.87E-09,  avg # of iterations =  4.0

     total cpu time spent up to now is       17.3 secs

     total energy              =    -282.05152526 Ry
     estimated scf accuracy    <       0.00000008 Ry

     iteration #  8     ecut=    80.00 Ry     beta= 0.70
     Davidson diagonalization with overlap
     ethr =  1.91E-10,  avg # of iterations =  2.8

     total cpu time spent up to now is       17.8 secs

     total energy              =    -282.05152579 Ry
     estimated scf accuracy    <       0.00000010 Ry

     iteration #  9     ecut=    80.00 Ry     beta= 0.70
     Davidson diagonalization with overlap
     ethr =  1.91E-10,  avg # of iterations =  5.1

     total cpu time spent up to now is       18.4 secs

     total energy              =    -282.05152468 Ry
     estimated scf accuracy    <       0.00000199 Ry

     iteration # 10     ecut=    80.00 Ry     beta= 0.70
     Davidson diagonalization with overlap
     ethr =  1.91E-10,  avg # of iterations =  5.3

     total cpu time spent up to now is       19.0 secs

     total energy              =    -282.05152524 Ry
     estimated scf accuracy    <       0.00000014 Ry

     iteration # 11     ecut=    80.00 Ry     beta= 0.70
     Davidson diagonalization with overlap
     ethr =  1.91E-10,  avg # of iterations =  2.8

     total cpu time spent up to now is       19.5 secs

     total energy              =    -282.05152523 Ry
     estimated scf accuracy    <       0.00000008 Ry

     iteration # 12     ecut=    80.00 Ry     beta= 0.70
     Davidson diagonalization with overlap
     ethr =  1.82E-10,  avg # of iterations =  2.0

     total cpu time spent up to now is       19.9 secs

     total energy              =    -282.05152523 Ry
     estimated scf accuracy    <       0.00000001 Ry

     iteration # 13     ecut=    80.00 Ry     beta= 0.70
     Davidson diagonalization with overlap
     ethr =  3.23E-11,  avg # of iterations =  3.1

     total cpu time spent up to now is       20.4 secs

     total energy              =    -282.05152523 Ry
     estimated scf accuracy    <          3.0E-09 Ry

     iteration # 14     ecut=    80.00 Ry     beta= 0.70
     Davidson diagonalization with overlap
     ethr =  6.83E-12,  avg # of iterations =  2.7

     total cpu time spent up to now is       20.9 secs

     total energy              =    -282.05152523 Ry
     estimated scf accuracy    <          3.7E-11 Ry

     iteration # 15     ecut=    80.00 Ry     beta= 0.70
     Davidson diagonalization with overlap
     ethr =  1.00E-13,  avg # of iterations =  6.8

     total cpu time spent up to now is       21.6 secs

     total energy              =    -282.05152523 Ry
     estimated scf accuracy    <          3.5E-09 Ry

     iteration # 16     ecut=    80.00 Ry     beta= 0.70
     Davidson diagonalization with overlap
     ethr =  1.00E-13,  avg # of iterations =  6.0

     total cpu time spent up to now is       22.2 secs

     total energy              =    -282.05152523 Ry
     estimated scf accuracy    <          5.0E-11 Ry

     iteration # 17     ecut=    80.00 Ry     beta= 0.70
     Davidson diagonalization with overlap
     ethr =  1.00E-13,  avg # of iterations =  1.0

     total cpu time spent up to now is       22.6 secs

     total energy              =    -282.05152523 Ry
     estimated scf accuracy    <          6.0E-11 Ry

     iteration # 18     ecut=    80.00 Ry     beta= 0.70
     Davidson diagonalization with overlap
     ethr =  1.00E-13,  avg # of iterations =  2.5

     total cpu time spent up to now is       23.1 secs

     total energy              =    -282.05152523 Ry
     estimated scf accuracy    <          4.2E-13 Ry

     iteration # 19     ecut=    80.00 Ry     beta= 0.70
     Davidson diagonalization with overlap
     ethr =  1.00E-13,  avg # of iterations =  1.0

     total cpu time spent up to now is       23.4 secs

     total energy              =    -282.05152523 Ry
     estimated scf accuracy    <          4.8E-14 Ry

     iteration # 20     ecut=    80.00 Ry     beta= 0.70
     Davidson diagonalization with overlap
     ethr =  1.00E-13,  avg # of iterations =  1.0

     total cpu time spent up to now is       23.8 secs

     total energy              =    -282.05152523 Ry
     estimated scf accuracy    <          2.0E-14 Ry

     iteration # 21     ecut=    80.00 Ry     beta= 0.70
     Davidson diagonalization with overlap
     ethr =  1.00E-13,  avg # of iterations =  1.0

     total cpu time spent up to now is       24.1 secs

     total energy              =    -282.05152523 Ry
     estimated scf accuracy    <          9.9E-14 Ry

     iteration # 22     ecut=    80.00 Ry     beta= 0.70
     Davidson diagonalization with overlap
     ethr =  1.00E-13,  avg # of iterations =  1.0

     total cpu time spent up to now is       24.5 secs

     total energy              =    -282.05152523 Ry
     estimated scf accuracy    <          2.8E-14 Ry

     iteration # 23     ecut=    80.00 Ry     beta= 0.70
     Davidson diagonalization with overlap
     ethr =  1.00E-13,  avg # of iterations =  1.0

     total cpu time spent up to now is       24.9 secs

     total energy              =    -282.05152523 Ry
     estimated scf accuracy    <          3.3E-14 Ry

     iteration # 24     ecut=    80.00 Ry     beta= 0.70
     Davidson diagonalization with overlap
     ethr =  1.00E-13,  avg # of iterations =  1.0

     total cpu time spent up to now is       25.2 secs

     total energy              =    -282.05152523 Ry
     estimated scf accuracy    <          1.3E-14 Ry

     iteration # 25     ecut=    80.00 Ry     beta= 0.70
     Davidson diagonalization with overlap
     ethr =  1.00E-13,  avg # of iterations =  1.0

     total cpu time spent up to now is       25.5 secs

     End of self-consistent calculation

          k = 0.0625 0.0625 0.0625 ( 19297 PWs)   bands (ev):

   -17.9482 -17.6852 -17.6852 -17.6630 -17.6630 -17.6630  -9.0402  -8.3133
    -8.3133  -4.7131  -4.7131  -4.7105  -2.1220  -0.4322  -0.4322  -0.2830
     1.9184   1.9184   1.9835   2.0760   2.1277   2.1277

          k = 0.0625 0.0625 0.1876 ( 19308 PWs)   bands (ev):

   -17.9481 -17.6852 -17.6847 -17.6631 -17.6631 -17.6630  -8.9992  -8.3630
    -8.3123  -4.7114  -4.7113  -4.7050  -2.4424  -0.4023  -0.3593   0.2429
     1.8032   1.8524   1.9867   2.0265   2.0929   2.1298

          k = 0.0625 0.0625 0.3127 ( 19280 PWs)   bands (ev):

   -17.9479 -17.6852 -17.6840 -17.6631 -17.6631 -17.6630  -8.9269  -8.4476
    -8.3110  -4.7089  -4.7079  -4.6990  -2.7445  -0.3573  -0.3098   0.8650
     1.6754   1.7729   1.9561   1.9956   2.0471   2.2482

          k = 0.0625 0.0625 0.4378 ( 19257 PWs)   bands (ev):

   -17.9478 -17.6852 -17.6835 -17.6632 -17.6632 -17.6630  -8.8544  -8.5289
    -8.3100  -4.7071  -4.7051  -4.6957  -2.9086  -0.3233  -0.2744   1.1293
     1.5916   1.7470   1.9244   1.9561   2.0200   2.6635

          k = 0.0625 0.1876 0.1876 ( 19281 PWs)   bands (ev):

   -17.9480 -17.6850 -17.6845 -17.6631 -17.6631 -17.6631  -8.9588  -8.3816
    -8.3386  -4.7121  -4.7100  -4.7009  -2.7186  -0.3553  -0.0242   0.4383
     1.6350   1.7981   1.9626   2.0253   2.1053   2.1875

          k = 0.0625 0.1876 0.3127 ( 19271 PWs)   bands (ev):

   -17.9478 -17.6849 -17.6838 -17.6632 -17.6631 -17.6631  -8.8872  -8.4517
    -8.3466  -4.7108  -4.7075  -4.6987  -2.9988  -0.3053   0.1476   0.8789
     1.5060   1.7312   1.9175   2.0210   2.1577   2.3130

          k = 0.0625 0.1876 0.4378 ( 19250 PWs)   bands (ev):

   -17.9477 -17.6849 -17.6833 -17.6632 -17.6632 -17.6631  -8.8139  -8.5291
    -8.3471  -4.7094  -4.7040  -4.6997  -3.1561  -0.2674   0.2114   1.0386
     1.4800   1.7475   1.8493   2.0178   2.1569   2.7380

          k = 0.0625 0.3127 0.3127 ( 19258 PWs)   bands (ev):

   -17.9477 -17.6846 -17.6834 -17.6632 -17.6631 -17.6631  -8.8162  -8.4735
    -8.3959  -4.7118  -4.7070  -4.6998  -3.2696  -0.2480   0.6784   0.9075
     1.4115   1.6704   1.8423   1.9952   2.3482   2.4843

          k = 0.0625 0.3127 0.4378 ( 19255 PWs)   bands (ev):

   -17.9475 -17.6845 -17.6830 -17.6633 -17.6632 -17.6631  -8.7399  -8.5298
    -8.4160  -4.7113  -4.7072  -4.7014  -3.4257  -0.2042   0.8773   0.9248
     1.4506   1.6733   1.7781   1.9679   2.3930   2.9446

          k = 0.0625 0.4378 0.4378 ( 19253 PWs)   bands (ev):

   -17.9474 -17.6844 -17.6826 -17.6633 -17.6632 -17.6632  -8.6517  -8.5356
    -8.4956  -4.7123  -4.7111  -4.7010  -3.5834  -0.1551   0.8273   1.3608
     1.4541   1.6356   1.7576   1.8779   2.5309   3.3471

          k = 0.1876 0.1876 0.1876 ( 19267 PWs)   bands (ev):

   -17.9479 -17.6845 -17.6845 -17.6631 -17.6631 -17.6631  -8.9195  -8.3802
    -8.3802  -4.7129  -4.7129  -4.6969  -2.9681   0.0104   0.0104   0.5775
     1.6018   1.6018   1.9132   2.1357   2.1811   2.1811

          k = 0.1876 0.1876 0.3127 ( 19261 PWs)   bands (ev):

   -17.9477 -17.6845 -17.6838 -17.6632 -17.6632 -17.6631  -8.8498  -8.4533
    -8.3781  -4.7141  -4.7120  -4.6966  -3.2341   0.0642   0.2674   0.8891
     1.4217   1.5694   1.9863   2.1497   2.2094   2.3265

          k = 0.1876 0.1876 0.4378 ( 19273 PWs)   bands (ev):

   -17.9476 -17.6845 -17.6833 -17.6632 -17.6632 -17.6631  -8.7770  -8.5286
    -8.3767  -4.7149  -4.7077  -4.7005  -3.3872   0.1067   0.3605   1.0115
     1.3130   1.6365   1.9798   2.1393   2.2252   2.7802

          k = 0.1876 0.3127 0.3127 ( 19248 PWs)   bands (ev):

   -17.9476 -17.6841 -17.6834 -17.6632 -17.6632 -17.6632  -8.7828  -8.4715
    -8.4210  -4.7160  -4.7159  -4.6990  -3.4944   0.2042   0.7142   0.9176
     1.3152   1.4580   2.0596   2.1917   2.3479   2.4702

          k = 0.1876 0.3127 0.4378 ( 19263 PWs)   bands (ev):

   -17.9474 -17.6840 -17.6830 -17.6633 -17.6632 -17.6632  -8.7102  -8.5282
    -8.4329  -4.7186  -4.7142  -4.7040  -3.6477   0.2617   0.9066   0.9516
     1.2463   1.5057   2.0514   2.1740   2.4029   2.9605

          k = 0.1876 0.4378 0.4378 ( 19247 PWs)   bands (ev):

   -17.9473 -17.6839 -17.6826 -17.6633 -17.6632 -17.6632  -8.6311  -8.5332
    -8.4992  -4.7188  -4.7186  -4.7089  -3.8033   0.3279   0.8723   1.2122
     1.2375   1.6225   2.0641   2.1165   2.5355   3.3748

          k = 0.3127 0.3127 0.3127 ( 19282 PWs)   bands (ev):

   -17.9474 -17.6834 -17.6834 -17.6632 -17.6632 -17.6632  -8.7235  -8.4687
    -8.4687  -4.7219  -4.7219  -4.7046  -3.7510   0.7795   0.7795   0.9370
     1.2614   1.2614   2.3247   2.3247   2.3719   2.5545

          k = 0.3127 0.3127 0.4378 ( 19253 PWs)   bands (ev):

   -17.9473 -17.6834 -17.6829 -17.6633 -17.6633 -17.6632  -8.6577  -8.5262
    -8.4666  -4.7260  -4.7224  -4.7121  -3.9054   0.8529   0.9512   1.0103
     1.1220   1.4020   2.2943   2.3349   2.4445   3.0792

          k = 0.3127 0.4378 0.4378 ( 19251 PWs)   bands (ev):

   -17.9472 -17.6831 -17.6826 -17.6633 -17.6633 -17.6633  -8.5969  -8.5298
    -8.5089  -4.7286  -4.7276  -4.7209  -4.0622   0.9368   1.0108   1.0780
     1.1172   1.6242   2.3579   2.3695   2.5427   3.4759

          k = 0.4378 0.4378 0.4378 ( 19310 PWs)   bands (ev):

   -17.9471 -17.6826 -17.6826 -17.6633 -17.6633 -17.6633  -8.5605  -8.5274
    -8.5274  -4.7340  -4.7340  -4.7307  -4.2213   0.9771   1.0058   1.0058
     1.6272   1.6272   2.5257   2.5257   2.5577   3.8014

     highest occupied level (ev):     3.8014

!    total energy              =    -282.05152523 Ry
     estimated scf accuracy    <          6.2E-15 Ry

     The total energy is the sum of the following terms:
     one-electron contribution =    -118.13277381 Ry
     hartree contribution      =      75.79046783 Ry
     xc contribution           =     -80.98566074 Ry
     ewald contribution        =    -158.72355851 Ry

     convergence has been achieved in  25 iterations

     Forces acting on atoms (cartesian axes, Ry/au):

     atom    1 type  1   force =     0.00000000    0.00000000    0.00000000
     atom    2 type  2   force =     0.00000000    0.00000000    0.00000000
     atom    3 type  3   force =     0.00000000    0.00000000    0.00000000
     atom    4 type  3   force =     0.00000000    0.00000000    0.00000000
     atom    5 type  3   force =     0.00000000    0.00000000    0.00000000
     The non-local contrib.  to forces
     atom    1 type  1   force =     0.00000000    0.00000000    0.00000000
     atom    2 type  2   force =     0.00000000    0.00000000    0.00000000
     atom    3 type  3   force =     0.00000000    0.00000000    0.00000000
     atom    4 type  3   force =     0.00000000    0.00000000    0.00000000
     atom    5 type  3   force =     0.00000000    0.00000000    0.00000000
     The ionic contribution  to forces
     atom    1 type  1   force =    -0.00000000   -0.00000000    0.00000000
     atom    2 type  2   force =    -0.00000000   -0.00000000   -0.00000000
     atom    3 type  3   force =     0.00000000   -0.00000000   -0.00000000
     atom    4 type  3   force =    -0.00000000   -0.00000000    0.00000000
     atom    5 type  3   force =    -0.00000000    0.00000000   -0.00000000
     The local contribution  to forces
     atom    1 type  1   force =     0.00000000    0.00000000    0.00000000
     atom    2 type  2   force =     0.00000000    0.00000000   -0.00000000
     atom    3 type  3   force =    -0.00000000   -0.00000000   -0.00000000
     atom    4 type  3   force =    -0.00000000   -0.00000000   -0.00000000
     atom    5 type  3   force =    -0.00000000   -0.00000000   -0.00000000
     The core correction contribution to forces
     atom    1 type  1   force =    -0.00000000   -0.00000000   -0.00000000
     atom    2 type  2   force =     0.00000000    0.00000000    0.00000000
     atom    3 type  3   force =    -0.00000000    0.00000000    0.00000000
     atom    4 type  3   force =     0.00000000    0.00000000   -0.00000000
     atom    5 type  3   force =     0.00000000   -0.00000000    0.00000000
     The Hubbard contrib.    to forces
     atom    1 type  1   force =     0.00000000    0.00000000    0.00000000
     atom    2 type  2   force =     0.00000000    0.00000000    0.00000000
     atom    3 type  3   force =     0.00000000    0.00000000    0.00000000
     atom    4 type  3   force =     0.00000000    0.00000000    0.00000000
     atom    5 type  3   force =     0.00000000    0.00000000    0.00000000
     The SCF correction term to forces
     atom    1 type  1   force =    -0.00000000    0.00000000   -0.00000000
     atom    2 type  2   force =     0.00000000    0.00000000    0.00000000
     atom    3 type  3   force =    -0.00000000   -0.00000000   -0.00000000
     atom    4 type  3   force =    -0.00000000   -0.00000000   -0.00000000
     atom    5 type  3   force =    -0.00000000   -0.00000000    0.00000000

     Total force =     0.000000     Total SCF correction =     0.000000


     Computing stress (Cartesian axis) and pressure

          total   stress  (Ry/bohr**3)                   (kbar)     P=       -3.86
  -0.00002625   0.00000000   0.00000000           -3.86        0.00        0.00
   0.00000000  -0.00002625   0.00000000            0.00       -3.86        0.00
   0.00000000   0.00000000  -0.00002625            0.00        0.00       -3.86

     Energy error            =      9.4E-05 Ry
     Gradient error          =      0.0E+00 Ry/Bohr
     Cell gradient error     =      3.9E+00 kbar

     number of scf cycles    =   2
     number of bfgs steps    =   1

     enthalpy           old  =    -282.0514315150 Ry
     enthalpy           new  =    -282.0515252316 Ry

     CASE: enthalpy          _new < enthalpy          _old


     WARNING: bfgs curvature condition failed, Theta= 0.873
     new trust radius        =       0.0085610989 bohr
     new conv_thr            =            1.0E-16 Ry

     new unit-cell volume =   1585.90911 a.u.^3 (   235.00748 Ang^3 )
     density =      4.46797 g/cm^3

CELL_PARAMETERS (angstrom)
   6.171071297   0.000000000   0.000000000
   0.000000000   6.171071297   0.000000000
   0.000000000   0.000000000   6.171071297

ATOMIC_POSITIONS (angstrom)
Cs            3.0855356483        3.0855356483        3.0855356483
Sn            0.0000000000        0.0000000000        0.0000000000
I             3.0855356483        0.0000000000        0.0000000000
I             0.0000000000        0.0000000000        3.0855356483
I             0.0000000000        3.0855356483        0.0000000000



     Writing config-only to output data dir ./out/pwscf.save/
     NEW-OLD atomic charge density approx. for the potential
     extrapolated charge   43.85816, renormalised to   44.00000

     total cpu time spent up to now is       28.1 secs

     per-process dynamical memory:  1954.6 Mb

     Self-consistent Calculation

     iteration #  1     ecut=    80.00 Ry     beta= 0.70
     Davidson diagonalization with overlap
     ethr =  1.00E-06,  avg # of iterations =  4.3

     total cpu time spent up to now is       28.7 secs

     total energy              =    -282.05043667 Ry
     estimated scf accuracy    <       0.00068475 Ry

     iteration #  2     ecut=    80.00 Ry     beta= 0.70
     Davidson diagonalization with overlap
     ethr =  1.56E-06,  avg # of iterations =  5.0

     total cpu time spent up to now is       29.2 secs

     total energy              =    -282.05164060 Ry
     estimated scf accuracy    <       0.00121126 Ry

     iteration #  3     ecut=    80.00 Ry     beta= 0.70
     Davidson diagonalization with overlap
     ethr =  1.56E-06,  avg # of iterations =  2.0

     total cpu time spent up to now is       29.6 secs

     total energy              =    -282.05168147 Ry
     estimated scf accuracy    <       0.00022682 Ry

     iteration #  4     ecut=    80.00 Ry     beta= 0.70
     Davidson diagonalization with overlap
     ethr =  5.16E-07,  avg # of iterations =  2.0

     total cpu time spent up to now is       30.0 secs

     total energy              =    -282.05167052 Ry
     estimated scf accuracy    <       0.00010371 Ry

     iteration #  5     ecut=    80.00 Ry     beta= 0.70
     Davidson diagonalization with overlap
     ethr =  2.36E-07,  avg # of iterations =  1.4

     total cpu time spent up to now is       30.4 secs

     total energy              =    -282.05164269 Ry
     estimated scf accuracy    <       0.00006277 Ry

     iteration #  6     ecut=    80.00 Ry     beta= 0.70
     Davidson diagonalization with overlap
     ethr =  1.43E-07,  avg # of iterations =  2.5

     total cpu time spent up to now is       30.8 secs

     total energy              =    -282.05164795 Ry
     estimated scf accuracy    <       0.00000717 Ry

     iteration #  7     ecut=    80.00 Ry     beta= 0.70
     Davidson diagonalization with overlap
     ethr =  1.63E-08,  avg # of iterations =  4.2

     total cpu time spent up to now is       31.4 secs

     total energy              =    -282.05165042 Ry
     estimated scf accuracy    <       0.00000022 Ry

     iteration #  8     ecut=    80.00 Ry     beta= 0.70
     Davidson diagonalization with overlap
     ethr =  4.99E-10,  avg # of iterations =  3.1

     total cpu time spent up to now is       31.8 secs

     total energy              =    -282.05165190 Ry
     estimated scf accuracy    <       0.00000014 Ry

     iteration #  9     ecut=    80.00 Ry     beta= 0.70
     Davidson diagonalization with overlap
     ethr =  3.18E-10,  avg # of iterations =  5.9

     total cpu time spent up to now is       32.5 secs

     total energy              =    -282.05164886 Ry
     estimated scf accuracy    <       0.00000598 Ry

     iteration # 10     ecut=    80.00 Ry     beta= 0.70
     Davidson diagonalization with overlap
     ethr =  3.18E-10,  avg # of iterations =  6.0

     total cpu time spent up to now is       33.2 secs

     total energy              =    -282.05165037 Ry
     estimated scf accuracy    <       0.00000038 Ry

     iteration # 11     ecut=    80.00 Ry     beta= 0.70
     Davidson diagonalization with overlap
     ethr =  3.18E-10,  avg # of iterations =  3.1

     total cpu time spent up to now is       33.7 secs

     total energy              =    -282.05165043 Ry
     estimated scf accuracy    <       0.00000008 Ry

     iteration # 12     ecut=    80.00 Ry     beta= 0.70
     Davidson diagonalization with overlap
     ethr =  1.79E-10,  avg # of iterations =  1.1

     total cpu time spent up to now is       34.0 secs

     total energy              =    -282.05165041 Ry
     estimated scf accuracy    <       0.00000005 Ry

     iteration # 13     ecut=    80.00 Ry     beta= 0.70
     Davidson diagonalization with overlap
     ethr =  1.17E-10,  avg # of iterations =  2.0

     total cpu time spent up to now is       34.4 secs

     total energy              =    -282.05165042 Ry
     estimated scf accuracy    <          1.1E-09 Ry

     iteration # 14     ecut=    80.00 Ry     beta= 0.70
     Davidson diagonalization with overlap
     ethr =  2.53E-12,  avg # of iterations =  4.3

     total cpu time spent up to now is       35.0 secs

     total energy              =    -282.05165042 Ry
     estimated scf accuracy    <          5.6E-11 Ry

     iteration # 15     ecut=    80.00 Ry     beta= 0.70
     Davidson diagonalization with overlap
     ethr =  1.28E-13,  avg # of iterations =  4.0

     total cpu time spent up to now is       35.5 secs

     total energy              =    -282.05165042 Ry
     estimated scf accuracy    <          9.4E-11 Ry

     iteration # 16     ecut=    80.00 Ry     beta= 0.70
     Davidson diagonalization with overlap
     ethr =  1.28E-13,  avg # of iterations =  1.6

     total cpu time spent up to now is       35.9 secs

     total energy              =    -282.05165042 Ry
     estimated scf accuracy    <          1.2E-10 Ry

     iteration # 17     ecut=    80.00 Ry     beta= 0.70
     Davidson diagonalization with overlap
     ethr =  1.28E-13,  avg # of iterations =  1.1

     total cpu time spent up to now is       36.3 secs

     total energy              =    -282.05165042 Ry
     estimated scf accuracy    <          6.7E-11 Ry

     iteration # 18     ecut=    80.00 Ry     beta= 0.70
     Davidson diagonalization with overlap
     ethr =  1.28E-13,  avg # of iterations =  3.0

     total cpu time spent up to now is       36.8 secs

     total energy              =    -282.05165042 Ry
     estimated scf accuracy    <          1.0E-11 Ry

     iteration # 19     ecut=    80.00 Ry     beta= 0.70
     Davidson diagonalization with overlap
     ethr =  1.00E-13,  avg # of iterations =  2.0

     total cpu time spent up to now is       37.2 secs

     total energy              =    -282.05165042 Ry
     estimated scf accuracy    <          6.9E-14 Ry

     iteration # 20     ecut=    80.00 Ry     beta= 0.70
     Davidson diagonalization with overlap
     ethr =  1.00E-13,  avg # of iterations =  1.0

     total cpu time spent up to now is       37.5 secs

     total energy              =    -282.05165042 Ry
     estimated scf accuracy    <          1.1E-13 Ry

     iteration # 21     ecut=    80.00 Ry     beta= 0.70
     Davidson diagonalization with overlap
     ethr =  1.00E-13,  avg # of iterations =  1.0

     total cpu time spent up to now is       37.9 secs

     total energy              =    -282.05165042 Ry
     estimated scf accuracy    <          1.0E-14 Ry

     iteration # 22     ecut=    80.00 Ry     beta= 0.70
     Davidson diagonalization with overlap
     ethr =  1.00E-13,  avg # of iterations =  1.0

     total cpu time spent up to now is       38.3 secs

     total energy              =    -282.05165042 Ry
     estimated scf accuracy    <          2.7E-15 Ry

     iteration # 23     ecut=    80.00 Ry     beta= 0.70
     Davidson diagonalization with overlap
     ethr =  1.00E-13,  avg # of iterations =  1.0

     total cpu time spent up to now is       38.6 secs

     total energy              =    -282.05165042 Ry
     estimated scf accuracy    <          6.1E-16 Ry

     iteration # 24     ecut=    80.00 Ry     beta= 0.70
     Davidson diagonalization with overlap
     ethr =  1.00E-13,  avg # of iterations =  1.0

     total cpu time spent up to now is       39.0 secs

     total energy              =    -282.05165042 Ry
     estimated scf accuracy    <          1.1E-16 Ry

     iteration # 25     ecut=    80.00 Ry     beta= 0.70
     Davidson diagonalization with overlap
     ethr =  1.00E-13,  avg # of iterations =  1.0

     total cpu time spent up to now is       39.3 secs

     End of self-consistent calculation

          k = 0.0626 0.0626 0.0626 ( 19297 PWs)   bands (ev):

   -17.9170 -17.6517 -17.6517 -17.6290 -17.6290 -17.6290  -9.0235  -8.2898
    -8.2898  -4.6827  -4.6827  -4.6800  -2.0898  -0.4166  -0.4166  -0.2645
     1.9417   1.9417   2.0073   2.1013   2.1532   2.1532

          k = 0.0626 0.0626 0.1878 ( 19308 PWs)   bands (ev):

   -17.9169 -17.6517 -17.6512 -17.6291 -17.6291 -17.6290  -8.9822  -8.3401
    -8.2889  -4.6810  -4.6809  -4.6744  -2.4135  -0.3867  -0.3432   0.2644
     1.8259   1.8755   2.0104   2.0515   2.1181   2.1555

          k = 0.0626 0.0626 0.3131 ( 19280 PWs)   bands (ev):

   -17.9167 -17.6517 -17.6505 -17.6291 -17.6291 -17.6290  -8.9094  -8.4256
    -8.2875  -4.6784  -4.6774  -4.6683  -2.7175  -0.3416  -0.2935   0.8870
     1.6974   1.7957   1.9795   2.0200   2.0717   2.2766

          k = 0.0626 0.0626 0.4383 ( 19257 PWs)   bands (ev):

   -17.9166 -17.6517 -17.6500 -17.6292 -17.6292 -17.6290  -8.8363  -8.5078
    -8.2865  -4.6766  -4.6745  -4.6650  -2.8822  -0.3074  -0.2579   1.1497
     1.6131   1.7696   1.9475   1.9800   2.0443   2.6969

          k = 0.0626 0.1878 0.1878 ( 19281 PWs)   bands (ev):

   -17.9168 -17.6515 -17.6510 -17.6291 -17.6291 -17.6291  -8.9415  -8.3589
    -8.3154  -4.6817  -4.6795  -4.6703  -2.6921  -0.3394  -0.0068   0.4608
     1.6569   1.8207   1.9874   2.0494   2.1308   2.2132

          k = 0.0626 0.1878 0.3131 ( 19271 PWs)   bands (ev):

   -17.9166 -17.6514 -17.6503 -17.6292 -17.6291 -17.6291  -8.8694  -8.4297
    -8.3235  -4.6803  -4.6769  -4.6680  -2.9740  -0.2892   0.1661   0.9002
     1.5276   1.7537   1.9416   2.0453   2.1833   2.3414

          k = 0.0626 0.1878 0.4383 ( 19250 PWs)   bands (ev):

   -17.9165 -17.6514 -17.6498 -17.6292 -17.6292 -17.6291  -8.7955  -8.5080
    -8.3240  -4.6789  -4.6734  -4.6690  -3.1320  -0.2512   0.2305   1.0579
     1.5012   1.7701   1.8726   2.0421   2.1817   2.7719

          k = 0.0626 0.3131 0.3131 ( 19258 PWs)   bands (ev):

   -17.9164 -17.6511 -17.6499 -17.6292 -17.6291 -17.6291  -8.7977  -8.4518
    -8.3733  -4.6813  -4.6764  -4.6692  -3.2464  -0.2316   0.6988   0.9270
     1.4332   1.6924   1.8658   2.0197   2.3744   2.5155

          k = 0.0626 0.3131 0.4383 ( 19255 PWs)   bands (ev):

   -17.9163 -17.6510 -17.6495 -17.6293 -17.6292 -17.6291  -8.7208  -8.5087
    -8.3937  -4.6809  -4.6766  -4.6707  -3.4033  -0.1875   0.8976   0.9441
     1.4720   1.6955   1.8008   1.9924   2.4193   2.9798

          k = 0.0626 0.4383 0.4383 ( 19253 PWs)   bands (ev):

   -17.9162 -17.6509 -17.6491 -17.6293 -17.6292 -17.6292  -8.6317  -8.5145
    -8.4741  -4.6818  -4.6806  -4.6704  -3.5619  -0.1382   0.8448   1.3829
     1.4756   1.6581   1.7801   1.9024   2.5581   3.3850

          k = 0.1878 0.1878 0.1878 ( 19267 PWs)   bands (ev):

   -17.9167 -17.6510 -17.6510 -17.6291 -17.6291 -17.6291  -8.9019  -8.3574
    -8.3574  -4.6825  -4.6825  -4.6662  -2.9437   0.0280   0.0280   0.6002
     1.6235   1.6235   1.9392   2.1603   2.2066   2.2066

          k = 0.1878 0.1878 0.3131 ( 19261 PWs)   bands (ev):

   -17.9165 -17.6510 -17.6502 -17.6292 -17.6292 -17.6291  -8.8316  -8.4314
    -8.3554  -4.6837  -4.6815  -4.6659  -3.2112   0.0820   0.2866   0.9097
     1.4424   1.5911   2.0126   2.1747   2.2346   2.3550

          k = 0.1878 0.1878 0.4383 ( 19273 PWs)   bands (ev):

   -17.9164 -17.6510 -17.6497 -17.6292 -17.6292 -17.6291  -8.7583  -8.5074
    -8.3539  -4.6845  -4.6771  -4.6698  -3.3650   0.1246   0.3805   1.0306
     1.3333   1.6588   2.0040   2.1642   2.2503   2.8144

          k = 0.1878 0.3131 0.3131 ( 19248 PWs)   bands (ev):

   -17.9163 -17.6506 -17.6499 -17.6293 -17.6292 -17.6292  -8.7641  -8.4498
    -8.3987  -4.6856  -4.6856  -4.6683  -3.4731   0.2228   0.7347   0.9371
     1.3358   1.4793   2.0854   2.2170   2.3740   2.5012

          k = 0.1878 0.3131 0.4383 ( 19263 PWs)   bands (ev):

   -17.9162 -17.6505 -17.6494 -17.6293 -17.6292 -17.6292  -8.6909  -8.5070
    -8.4107  -4.6883  -4.6838  -4.6734  -3.6272   0.2806   0.9269   0.9712
     1.2665   1.5278   2.0759   2.1992   2.4292   2.9958

          k = 0.1878 0.4383 0.4383 ( 19247 PWs)   bands (ev):

   -17.9161 -17.6504 -17.6491 -17.6293 -17.6292 -17.6292  -8.6109  -8.5121
    -8.4778  -4.6884  -4.6883  -4.6784  -3.7837   0.3473   0.8903   1.2327
     1.2578   1.6469   2.0885   2.1414   2.5627   3.4127

          k = 0.3131 0.3131 0.3131 ( 19282 PWs)   bands (ev):

   -17.9162 -17.6499 -17.6499 -17.6293 -17.6293 -17.6292  -8.7042  -8.4469
    -8.4469  -4.6916  -4.6916  -4.6740  -3.7314   0.8003   0.8003   0.9561
     1.2818   1.2818   2.3508   2.3508   2.3981   2.5876

          k = 0.3131 0.3131 0.4383 ( 19253 PWs)   bands (ev):

   -17.9161 -17.6499 -17.6494 -17.6293 -17.6293 -17.6293  -8.6378  -8.5050
    -8.4448  -4.6958  -4.6922  -4.6817  -3.8867   0.8742   0.9701   1.0309
     1.1417   1.4248   2.3202   2.3609   2.4711   3.1151

          k = 0.3131 0.4383 0.4383 ( 19251 PWs)   bands (ev):

   -17.9160 -17.6496 -17.6491 -17.6293 -17.6293 -17.6293  -8.5764  -8.5087
    -8.4875  -4.6984  -4.6974  -4.6906  -4.0445   0.9554   1.0320   1.0977
     1.1381   1.6491   2.3841   2.3957   2.5699   3.5137

          k = 0.4383 0.4383 0.4383 ( 19310 PWs)   bands (ev):

   -17.9159 -17.6491 -17.6491 -17.6293 -17.6293 -17.6293  -8.5397  -8.5062
    -8.5062  -4.7039  -4.7039  -4.7006  -4.2047   0.9962   1.0251   1.0251
     1.6523   1.6523   2.5529   2.5529   2.5850   3.8396

     highest occupied level (ev):     3.8396

!    total energy              =    -282.05165042 Ry
     estimated scf accuracy    <          1.0E-17 Ry

     The total energy is the sum of the following terms:
     one-electron contribution =    -117.87491733 Ry
     hartree contribution      =      75.70768903 Ry
     xc contribution           =     -80.99034625 Ry
     ewald contribution        =    -158.89407587 Ry

     convergence has been achieved in  25 iterations

     Forces acting on atoms (cartesian axes, Ry/au):

     atom    1 type  1   force =     0.00000000    0.00000000    0.00000000
     atom    2 type  2   force =     0.00000000    0.00000000    0.00000000
     atom    3 type  3   force =     0.00000000    0.00000000    0.00000000
     atom    4 type  3   force =     0.00000000    0.00000000    0.00000000
     atom    5 type  3   force =     0.00000000    0.00000000    0.00000000
     The non-local contrib.  to forces
     atom    1 type  1   force =     0.00000000    0.00000000    0.00000000
     atom    2 type  2   force =     0.00000000    0.00000000    0.00000000
     atom    3 type  3   force =     0.00000000    0.00000000    0.00000000
     atom    4 type  3   force =     0.00000000    0.00000000    0.00000000
     atom    5 type  3   force =     0.00000000    0.00000000    0.00000000
     The ionic contribution  to forces
     atom    1 type  1   force =     0.00000000   -0.00000000   -0.00000000
     atom    2 type  2   force =    -0.00000000   -0.00000000   -0.00000000
     atom    3 type  3   force =     0.00000000   -0.00000000   -0.00000000
     atom    4 type  3   force =    -0.00000000   -0.00000000    0.00000000
     atom    5 type  3   force =    -0.00000000    0.00000000   -0.00000000
     The local contribution  to forces
     atom    1 type  1   force =     0.00000000    0.00000000    0.00000000
     atom    2 type  2   force =    -0.00000000   -0.00000000    0.00000000
     atom    3 type  3   force =    -0.00000000   -0.00000000   -0.00000000
     atom    4 type  3   force =     0.00000000   -0.00000000   -0.00000000
     atom    5 type  3   force =     0.00000000   -0.00000000   -0.00000000
     The core correction contribution to forces
     atom    1 type  1   force =    -0.00000000   -0.00000000    0.00000000
     atom    2 type  2   force =     0.00000000    0.00000000    0.00000000
     atom    3 type  3   force =    -0.00000000    0.00000000    0.00000000
     atom    4 type  3   force =     0.00000000    0.00000000    0.00000000
     atom    5 type  3   force =     0.00000000   -0.00000000    0.00000000
     The Hubbard contrib.    to forces
     atom    1 type  1   force =     0.00000000    0.00000000    0.00000000
     atom    2 type  2   force =     0.00000000    0.00000000    0.00000000
     atom    3 type  3   force =     0.00000000    0.00000000    0.00000000
     atom    4 type  3   force =     0.00000000    0.00000000    0.00000000
     atom    5 type  3   force =     0.00000000    0.00000000    0.00000000
     The SCF correction term to forces
     atom    1 type  1   force =    -0.00000000   -0.00000000   -0.00000000
     atom    2 type  2   force =    -0.00000000    0.00000000   -0.00000000
     atom    3 type  3   force =     0.00000000   -0.00000000    0.00000000
     atom    4 type  3   force =     0.00000000   -0.00000000   -0.00000000
     atom    5 type  3   force =    -0.00000000   -0.00000000    0.00000000

     Total force =     0.000000     Total SCF correction =     0.000000


     Computing stress (Cartesian axis) and pressure

          total   stress  (Ry/bohr**3)                   (kbar)     P=       -3.34
  -0.00002267   0.00000000   0.00000000           -3.34        0.00        0.00
   0.00000000  -0.00002267   0.00000000            0.00       -3.34        0.00
   0.00000000   0.00000000  -0.00002267            0.00        0.00       -3.34

     Energy error            =      1.3E-04 Ry
     Gradient error          =      0.0E+00 Ry/Bohr
     Cell gradient error     =      3.3E+00 kbar

     number of scf cycles    =   3
     number of bfgs steps    =   2

     enthalpy           old  =    -282.0515252316 Ry
     enthalpy           new  =    -282.0516504158 Ry

     CASE: enthalpy          _new < enthalpy          _old

     new trust radius        =       0.0128347560 bohr
     new conv_thr            =            1.0E-16 Ry

     new unit-cell volume =   1578.25459 a.u.^3 (   233.87320 Ang^3 )
     density =      4.48964 g/cm^3

CELL_PARAMETERS (angstrom)
   6.161126886   0.000000000   0.000000000
   0.000000000   6.161126886   0.000000000
   0.000000000   0.000000000   6.161126886

ATOMIC_POSITIONS (angstrom)
Cs            3.0805634431        3.0805634431        3.0805634431
Sn            0.0000000000        0.0000000000        0.0000000000
I             3.0805634431        0.0000000000        0.0000000000
I             0.0000000000        0.0000000000        3.0805634431
I             0.0000000000        3.0805634431        0.0000000000



     Writing config-only to output data dir ./out/pwscf.save/
     NEW-OLD atomic charge density approx. for the potential
     extrapolated charge   43.78679, renormalised to   44.00000

     total cpu time spent up to now is       41.9 secs

     per-process dynamical memory:  2010.4 Mb

     Self-consistent Calculation

     iteration #  1     ecut=    80.00 Ry     beta= 0.70
     Davidson diagonalization with overlap
     ethr =  1.00E-06,  avg # of iterations =  5.0

     total cpu time spent up to now is       42.4 secs

     total energy              =    -282.04893108 Ry
     estimated scf accuracy    <       0.00164247 Ry

     iteration #  2     ecut=    80.00 Ry     beta= 0.70
     Davidson diagonalization with overlap
     ethr =  3.73E-06,  avg # of iterations =  5.0

     total cpu time spent up to now is       43.0 secs

     total energy              =    -282.05177795 Ry
     estimated scf accuracy    <       0.00293553 Ry

     iteration #  3     ecut=    80.00 Ry     beta= 0.70
     Davidson diagonalization with overlap
     ethr =  3.73E-06,  avg # of iterations =  2.0

     total cpu time spent up to now is       43.4 secs

     total energy              =    -282.05187306 Ry
     estimated scf accuracy    <       0.00054882 Ry

     iteration #  4     ecut=    80.00 Ry     beta= 0.70
     Davidson diagonalization with overlap
     ethr =  1.25E-06,  avg # of iterations =  2.0

     total cpu time spent up to now is       43.8 secs

     total energy              =    -282.05185036 Ry
     estimated scf accuracy    <       0.00024329 Ry

     iteration #  5     ecut=    80.00 Ry     beta= 0.70
     Davidson diagonalization with overlap
     ethr =  5.53E-07,  avg # of iterations =  1.3

     total cpu time spent up to now is       44.2 secs

     total energy              =    -282.05178750 Ry
     estimated scf accuracy    <       0.00014740 Ry

     iteration #  6     ecut=    80.00 Ry     beta= 0.70
     Davidson diagonalization with overlap
     ethr =  3.35E-07,  avg # of iterations =  2.3

     total cpu time spent up to now is       44.6 secs

     total energy              =    -282.05179652 Ry
     estimated scf accuracy    <       0.00001983 Ry

     iteration #  7     ecut=    80.00 Ry     beta= 0.70
     Davidson diagonalization with overlap
     ethr =  4.51E-08,  avg # of iterations =  3.8

     total cpu time spent up to now is       45.1 secs

     total energy              =    -282.05180307 Ry
     estimated scf accuracy    <       0.00000049 Ry

     iteration #  8     ecut=    80.00 Ry     beta= 0.70
     Davidson diagonalization with overlap
     ethr =  1.12E-09,  avg # of iterations =  4.1

     total cpu time spent up to now is       45.6 secs

     total energy              =    -282.05180373 Ry
     estimated scf accuracy    <       0.00000029 Ry

     iteration #  9     ecut=    80.00 Ry     beta= 0.70
     Davidson diagonalization with overlap
     ethr =  6.69E-10,  avg # of iterations =  4.0

     total cpu time spent up to now is       46.2 secs

     total energy              =    -282.05180274 Ry
     estimated scf accuracy    <       0.00000192 Ry

     iteration # 10     ecut=    80.00 Ry     beta= 0.70
     Davidson diagonalization with overlap
     ethr =  6.69E-10,  avg # of iterations =  4.1

     total cpu time spent up to now is       46.7 secs

     total energy              =    -282.05180300 Ry
     estimated scf accuracy    <       0.00000065 Ry

     iteration # 11     ecut=    80.00 Ry     beta= 0.70
     Davidson diagonalization with overlap
     ethr =  6.69E-10,  avg # of iterations =  3.1

     total cpu time spent up to now is       47.2 secs

     total energy              =    -282.05180315 Ry
     estimated scf accuracy    <       0.00000010 Ry

     iteration # 12     ecut=    80.00 Ry     beta= 0.70
     Davidson diagonalization with overlap
     ethr =  2.36E-10,  avg # of iterations =  1.1

     total cpu time spent up to now is       47.6 secs

     total energy              =    -282.05180310 Ry
     estimated scf accuracy    <       0.00000007 Ry

     iteration # 13     ecut=    80.00 Ry     beta= 0.70
     Davidson diagonalization with overlap
     ethr =  1.63E-10,  avg # of iterations =  3.0

     total cpu time spent up to now is       48.1 secs

     total energy              =    -282.05180312 Ry
     estimated scf accuracy    <          5.1E-09 Ry

     iteration # 14     ecut=    80.00 Ry     beta= 0.70
     Davidson diagonalization with overlap
     ethr =  1.15E-11,  avg # of iterations =  3.1

     total cpu time spent up to now is       48.6 secs

     total energy              =    -282.05180312 Ry
     estimated scf accuracy    <          2.3E-09 Ry

     iteration # 15     ecut=    80.00 Ry     beta= 0.70
     Davidson diagonalization with overlap
     ethr =  5.33E-12,  avg # of iterations =  2.3

     total cpu time spent up to now is       49.0 secs

     total energy              =    -282.05180312 Ry
     estimated scf accuracy    <          6.9E-09 Ry

     iteration # 16     ecut=    80.00 Ry     beta= 0.70
     Davidson diagonalization with overlap
     ethr =  5.33E-12,  avg # of iterations =  3.0

     total cpu time spent up to now is       49.5 secs

     total energy              =    -282.05180312 Ry
     estimated scf accuracy    <          8.4E-11 Ry

     iteration # 17     ecut=    80.00 Ry     beta= 0.70
     Davidson diagonalization with overlap
     ethr =  1.90E-13,  avg # of iterations =  3.6

     total cpu time spent up to now is       50.0 secs

     total energy              =    -282.05180312 Ry
     estimated scf accuracy    <          1.8E-11 Ry

     iteration # 18     ecut=    80.00 Ry     beta= 0.70
     Davidson diagonalization with overlap
     ethr =  1.00E-13,  avg # of iterations =  2.0

     total cpu time spent up to now is       50.4 secs

     total energy              =    -282.05180312 Ry
     estimated scf accuracy    <          4.9E-13 Ry

     iteration # 19     ecut=    80.00 Ry     beta= 0.70
     Davidson diagonalization with overlap
     ethr =  1.00E-13,  avg # of iterations =  1.0

     total cpu time spent up to now is       50.8 secs

     total energy              =    -282.05180312 Ry
     estimated scf accuracy    <          1.1E-13 Ry

     iteration # 20     ecut=    80.00 Ry     beta= 0.70
     Davidson diagonalization with overlap
     ethr =  1.00E-13,  avg # of iterations =  1.0

     total cpu time spent up to now is       51.1 secs

     total energy              =    -282.05180312 Ry
     estimated scf accuracy    <          5.1E-14 Ry

     iteration # 21     ecut=    80.00 Ry     beta= 0.70
     Davidson diagonalization with overlap
     ethr =  1.00E-13,  avg # of iterations =  1.0

     total cpu time spent up to now is       51.5 secs

     total energy              =    -282.05180312 Ry
     estimated scf accuracy    <          2.1E-14 Ry

     iteration # 22     ecut=    80.00 Ry     beta= 0.70
     Davidson diagonalization with overlap
     ethr =  1.00E-13,  avg # of iterations =  1.0

     total cpu time spent up to now is       51.8 secs

     total energy              =    -282.05180312 Ry
     estimated scf accuracy    <          8.1E-16 Ry

     iteration # 23     ecut=    80.00 Ry     beta= 0.70
     Davidson diagonalization with overlap
     ethr =  1.00E-13,  avg # of iterations =  1.0

     total cpu time spent up to now is       52.2 secs

     End of self-consistent calculation

          k = 0.0627 0.0627 0.0627 ( 19297 PWs)   bands (ev):

   -17.8700 -17.6014 -17.6014 -17.5779 -17.5779 -17.5779  -8.9983  -8.2544
    -8.2544  -4.6369  -4.6369  -4.6342  -2.0414  -0.3931  -0.3931  -0.2367
     1.9770   1.9770   2.0432   2.1394   2.1919   2.1919

          k = 0.0627 0.0627 0.1881 ( 19308 PWs)   bands (ev):

   -17.8699 -17.6014 -17.6008 -17.5780 -17.5780 -17.5779  -8.9566  -8.3055
    -8.2534  -4.6351  -4.6351  -4.6284  -2.3701  -0.3631  -0.3189   0.2970
     1.8600   1.9103   2.0462   2.0891   2.1560   2.1944

          k = 0.0627 0.0627 0.3136 ( 19280 PWs)   bands (ev):

   -17.8697 -17.6014 -17.6001 -17.5780 -17.5780 -17.5779  -8.8830  -8.3925
    -8.2520  -4.6325  -4.6314  -4.6221  -2.6767  -0.3178  -0.2689   0.9202
     1.7304   1.8302   2.0148   2.0569   2.1089   2.3194

          k = 0.0627 0.0627 0.4390 ( 19257 PWs)   bands (ev):

   -17.8696 -17.6014 -17.5996 -17.5781 -17.5781 -17.5779  -8.8090  -8.4759
    -8.2510  -4.6306  -4.6285  -4.6186  -2.8425  -0.2835  -0.2331   1.1803
     1.6456   1.8038   1.9824   2.0161   2.0809   2.7475

          k = 0.0627 0.1881 0.1881 ( 19281 PWs)   bands (ev):

   -17.8698 -17.6011 -17.6006 -17.5780 -17.5780 -17.5780  -8.9154  -8.3247
    -8.2805  -4.6358  -4.6337  -4.6241  -2.6524  -0.3154   0.0195   0.4950
     1.6899   1.8549   2.0249   2.0858   2.1694   2.2519

          k = 0.0627 0.1881 0.3136 ( 19271 PWs)   bands (ev):

   -17.8696 -17.6010 -17.5999 -17.5781 -17.5780 -17.5780  -8.8425  -8.3966
    -8.2886  -4.6344  -4.6310  -4.6217  -2.9366  -0.2649   0.1942   0.9323
     1.5600   1.7875   1.9780   2.0819   2.2220   2.3844

          k = 0.0627 0.1881 0.4390 ( 19250 PWs)   bands (ev):

   -17.8695 -17.6010 -17.5994 -17.5781 -17.5781 -17.5780  -8.7677  -8.4761
    -8.2891  -4.6330  -4.6273  -4.6228  -3.0956  -0.2267   0.2592   1.0871
     1.5332   1.8041   1.9078   2.0788   2.2190   2.8231

          k = 0.0627 0.3136 0.3136 ( 19258 PWs)   bands (ev):

   -17.8694 -17.6007 -17.5994 -17.5781 -17.5780 -17.5780  -8.7699  -8.4191
    -8.3393  -4.6354  -4.6304  -4.6229  -3.2116  -0.2069   0.7295   0.9565
     1.4660   1.7255   1.9012   2.0565   2.4140   2.5626

          k = 0.0627 0.3136 0.4390 ( 19255 PWs)   bands (ev):

   -17.8693 -17.6006 -17.5990 -17.5782 -17.5781 -17.5780  -8.6920  -8.4768
    -8.3600  -4.6349  -4.6306  -4.6246  -3.3696  -0.1625   0.9281   0.9734
     1.5043   1.7290   1.8352   2.0293   2.4590   3.0330

          k = 0.0627 0.4390 0.4390 ( 19253 PWs)   bands (ev):

   -17.8692 -17.6005 -17.5986 -17.5782 -17.5781 -17.5781  -8.6017  -8.4827
    -8.4417  -4.6359  -4.6347  -4.6242  -3.5295  -0.1127   0.8711   1.4162
     1.5080   1.6922   1.8142   1.9393   2.5991   3.4423

          k = 0.1881 0.1881 0.1881 ( 19267 PWs)   bands (ev):

   -17.8696 -17.6006 -17.6006 -17.5780 -17.5780 -17.5780  -8.8754  -8.3232
    -8.3232  -4.6367  -4.6367  -4.6199  -2.9069   0.0544   0.0544   0.6343
     1.6561   1.6561   1.9784   2.1976   2.2452   2.2452

          k = 0.1881 0.1881 0.3136 ( 19261 PWs)   bands (ev):

   -17.8695 -17.6006 -17.5998 -17.5781 -17.5781 -17.5780  -8.8042  -8.3983
    -8.3211  -4.6379  -4.6357  -4.6196  -3.1767   0.1087   0.3156   0.9409
     1.4738   1.6239   2.0523   2.2125   2.2726   2.3981

          k = 0.1881 0.1881 0.4390 ( 19273 PWs)   bands (ev):

   -17.8693 -17.6006 -17.5993 -17.5781 -17.5781 -17.5780  -8.7300  -8.4755
    -8.3196  -4.6388  -4.6311  -4.6236  -3.3315   0.1516   0.4106   1.0594
     1.3639   1.6925   2.0406   2.2018   2.2881   2.8661

          k = 0.1881 0.3136 0.3136 ( 19248 PWs)   bands (ev):

   -17.8693 -17.6002 -17.5994 -17.5781 -17.5781 -17.5781  -8.7359  -8.4170
    -8.3651  -4.6398  -4.6398  -4.6221  -3.4410   0.2509   0.7656   0.9664
     1.3669   1.5113   2.1243   2.2552   2.4135   2.5481

          k = 0.1881 0.3136 0.4390 ( 19263 PWs)   bands (ev):

   -17.8692 -17.6001 -17.5990 -17.5782 -17.5781 -17.5781  -8.6617  -8.4751
    -8.3772  -4.6426  -4.6380  -4.6273  -3.5964   0.3092   0.9572   1.0009
     1.2970   1.5612   2.1128   2.2373   2.4689   3.0491

          k = 0.1881 0.4390 0.4390 ( 19247 PWs)   bands (ev):

   -17.8691 -17.5999 -17.5986 -17.5782 -17.5781 -17.5781  -8.5806  -8.4802
    -8.4454  -4.6427  -4.6425  -4.6324  -3.7542   0.3766   0.9174   1.2636
     1.2884   1.6838   2.1253   2.1790   2.6038   3.4699

          k = 0.3136 0.3136 0.3136 ( 19282 PWs)   bands (ev):

   -17.8691 -17.5994 -17.5994 -17.5781 -17.5781 -17.5781  -8.6752  -8.4140
    -8.4140  -4.6460  -4.6460  -4.6280  -3.7020   0.8317   0.8317   0.9849
     1.3128   1.3128   2.3902   2.3902   2.4375   2.6376

          k = 0.3136 0.3136 0.4390 ( 19253 PWs)   bands (ev):

   -17.8690 -17.5994 -17.5989 -17.5782 -17.5782 -17.5781  -8.6078  -8.4730
    -8.4119  -4.6504  -4.6466  -4.6358  -3.8586   0.9063   0.9986   1.0621
     1.1716   1.4591   2.3592   2.4003   2.5112   3.1691

          k = 0.3136 0.4390 0.4390 ( 19251 PWs)   bands (ev):

   -17.8689 -17.5992 -17.5986 -17.5782 -17.5782 -17.5782  -8.5455  -8.4767
    -8.4553  -4.6530  -4.6520  -4.6450  -4.0180   0.9836   1.0641   1.1274
     1.1697   1.6868   2.4235   2.4353   2.6111   3.5706

          k = 0.4390 0.4390 0.4390 ( 19310 PWs)   bands (ev):

   -17.8688 -17.5986 -17.5986 -17.5782 -17.5782 -17.5782  -8.5082  -8.4743
    -8.4743  -4.6587  -4.6587  -4.6553  -4.1798   1.0251   1.0543   1.0543
     1.6902   1.6902   2.5939   2.5939   2.6264   3.8972

     highest occupied level (ev):     3.8972

!    total energy              =    -282.05180312 Ry
     estimated scf accuracy    <          5.2E-17 Ry

     The total energy is the sum of the following terms:
     one-electron contribution =    -117.48724869 Ry
     hartree contribution      =      75.58341661 Ry
     xc contribution           =     -80.99743107 Ry
     ewald contribution        =    -159.15053998 Ry

     convergence has been achieved in  23 iterations

     Forces acting on atoms (cartesian axes, Ry/au):

     atom    1 type  1   force =     0.00000000    0.00000000    0.00000000
     atom    2 type  2   force =     0.00000000    0.00000000    0.00000000
     atom    3 type  3   force =     0.00000000    0.00000000    0.00000000
     atom    4 type  3   force =     0.00000000    0.00000000    0.00000000
     atom    5 type  3   force =     0.00000000    0.00000000    0.00000000
     The non-local contrib.  to forces
     atom    1 type  1   force =     0.00000000    0.00000000    0.00000000
     atom    2 type  2   force =     0.00000000    0.00000000    0.00000000
     atom    3 type  3   force =     0.00000000    0.00000000    0.00000000
     atom    4 type  3   force =     0.00000000    0.00000000    0.00000000
     atom    5 type  3   force =     0.00000000    0.00000000    0.00000000
     The ionic contribution  to forces
     atom    1 type  1   force =    -0.00000000   -0.00000000   -0.00000000
     atom    2 type  2   force =    -0.00000000   -0.00000000   -0.00000000
     atom    3 type  3   force =    -0.00000000   -0.00000000   -0.00000000
     atom    4 type  3   force =    -0.00000000   -0.00000000   -0.00000000
     atom    5 type  3   force =    -0.00000000   -0.00000000   -0.00000000
     The local contribution  to forces
     atom    1 type  1   force =     0.00000000    0.00000000    0.00000000
     atom    2 type  2   force =    -0.00000000    0.00000000    0.00000000
     atom    3 type  3   force =     0.00000000   -0.00000000   -0.00000000
     atom    4 type  3   force =    -0.00000000   -0.00000000    0.00000000
     atom    5 type  3   force =    -0.00000000    0.00000000   -0.00000000
     The core correction contribution to forces
     atom    1 type  1   force =     0.00000000    0.00000000    0.00000000
     atom    2 type  2   force =     0.00000000    0.00000000    0.00000000
     atom    3 type  3   force =     0.00000000    0.00000000   -0.00000000
     atom    4 type  3   force =     0.00000000    0.00000000    0.00000000
     atom    5 type  3   force =     0.00000000    0.00000000    0.00000000
     The Hubbard contrib.    to forces
     atom    1 type  1   force =     0.00000000    0.00000000    0.00000000
     atom    2 type  2   force =     0.00000000    0.00000000    0.00000000
     atom    3 type  3   force =     0.00000000    0.00000000    0.00000000
     atom    4 type  3   force =     0.00000000    0.00000000    0.00000000
     atom    5 type  3   force =     0.00000000    0.00000000    0.00000000
     The SCF correction term to forces
     atom    1 type  1   force =    -0.00000000   -0.00000000    0.00000000
     atom    2 type  2   force =    -0.00000000   -0.00000000   -0.00000000
     atom    3 type  3   force =    -0.00000000    0.00000000   -0.00000000
     atom    4 type  3   force =     0.00000000    0.00000000   -0.00000000
     atom    5 type  3   force =    -0.00000000   -0.00000000   -0.00000000

     Total force =     0.000000     Total SCF correction =     0.000000


     Computing stress (Cartesian axis) and pressure

          total   stress  (Ry/bohr**3)                   (kbar)     P=       -2.53
  -0.00001720   0.00000000   0.00000000           -2.53        0.00        0.00
   0.00000000  -0.00001720   0.00000000            0.00       -2.53        0.00
   0.00000000   0.00000000  -0.00001720            0.00        0.00       -2.53

     Energy error            =      1.5E-04 Ry
     Gradient error          =      0.0E+00 Ry/Bohr
     Cell gradient error     =      2.5E+00 kbar

     number of scf cycles    =   4
     number of bfgs steps    =   3

     enthalpy           old  =    -282.0516504158 Ry
     enthalpy           new  =    -282.0518031217 Ry

     CASE: enthalpy          _new < enthalpy          _old

     new trust radius        =       0.0192366158 bohr
     new conv_thr            =            1.0E-16 Ry

     new unit-cell volume =   1566.81905 a.u.^3 (   232.17863 Ang^3 )
     density =      4.52241 g/cm^3

CELL_PARAMETERS (angstrom)
   6.146210271   0.000000000   0.000000000
   0.000000000   6.146210271   0.000000000
   0.000000000   0.000000000   6.146210271

ATOMIC_POSITIONS (angstrom)
Cs            3.0731051353        3.0731051353        3.0731051353
Sn            0.0000000000        0.0000000000        0.0000000000
I             3.0731051353        0.0000000000        0.0000000000
I             0.0000000000        0.0000000000        3.0731051353
I             0.0000000000        3.0731051353        0.0000000000



     Writing config-only to output data dir ./out/pwscf.save/
     NEW-OLD atomic charge density approx. for the potential
     extrapolated charge   43.67914, renormalised to   44.00000

     total cpu time spent up to now is       54.7 secs

     per-process dynamical memory:  2010.4 Mb

     Self-consistent Calculation

     iteration #  1     ecut=    80.00 Ry     beta= 0.70
     Davidson diagonalization with overlap
     ethr =  1.00E-06,  avg # of iterations =  5.6

     total cpu time spent up to now is       55.3 secs

     total energy              =    -282.04538764 Ry
     estimated scf accuracy    <       0.00376929 Ry

     iteration #  2     ecut=    80.00 Ry     beta= 0.70
     Davidson diagonalization with overlap
     ethr =  8.57E-06,  avg # of iterations =  5.0

     total cpu time spent up to now is       55.9 secs

     total energy              =    -282.05189789 Ry
     estimated scf accuracy    <       0.00670495 Ry

     iteration #  3     ecut=    80.00 Ry     beta= 0.70
     Davidson diagonalization with overlap
     ethr =  8.57E-06,  avg # of iterations =  2.0

     total cpu time spent up to now is       56.3 secs

     total energy              =    -282.05211148 Ry
     estimated scf accuracy    <       0.00125268 Ry

     iteration #  4     ecut=    80.00 Ry     beta= 0.70
     Davidson diagonalization with overlap
     ethr =  2.85E-06,  avg # of iterations =  2.0

     total cpu time spent up to now is       56.7 secs

     total energy              =    -282.05206466 Ry
     estimated scf accuracy    <       0.00055525 Ry

     iteration #  5     ecut=    80.00 Ry     beta= 0.70
     Davidson diagonalization with overlap
     ethr =  1.26E-06,  avg # of iterations =  1.3

     total cpu time spent up to now is       57.1 secs

     total energy              =    -282.05191577 Ry
     estimated scf accuracy    <       0.00034518 Ry

     iteration #  6     ecut=    80.00 Ry     beta= 0.70
     Davidson diagonalization with overlap
     ethr =  7.85E-07,  avg # of iterations =  2.4

     total cpu time spent up to now is       57.5 secs

     total energy              =    -282.05193786 Ry
     estimated scf accuracy    <       0.00004599 Ry

     iteration #  7     ecut=    80.00 Ry     beta= 0.70
     Davidson diagonalization with overlap
     ethr =  1.05E-07,  avg # of iterations =  4.0

     total cpu time spent up to now is       58.0 secs

     total energy              =    -282.05195186 Ry
     estimated scf accuracy    <       0.00000170 Ry

     iteration #  8     ecut=    80.00 Ry     beta= 0.70
[...]
        k(   11) = (   0.1890645   0.1890645   0.1890645), wk =   0.0312500
        k(   12) = (   0.1890645   0.1890645   0.3151075), wk =   0.0937500
        k(   13) = (   0.1890645   0.1890645   0.4411505), wk =   0.0937500
        k(   14) = (   0.1890645   0.3151075   0.3151075), wk =   0.0937500
        k(   15) = (   0.1890645   0.3151075   0.4411505), wk =   0.1875000
        k(   16) = (   0.1890645   0.4411505   0.4411505), wk =   0.0937500
        k(   17) = (   0.3151075   0.3151075   0.3151075), wk =   0.0312500
        k(   18) = (   0.3151075   0.3151075   0.4411505), wk =   0.0937500
        k(   19) = (   0.3151075   0.4411505   0.4411505), wk =   0.0937500
        k(   20) = (   0.4411505   0.4411505   0.4411505), wk =   0.0312500

     Dense  grid:   150165 G-vectors     FFT dimensions: (  72,  72,  72)

     Estimated max dynamical RAM per process >     309.10 MB

     Initial potential from superposition of free atoms

     starting charge      43.9618, renormalised to      44.0000
     Starting wfcs are   26 randomized atomic wfcs

     total cpu time spent up to now is       87.5 secs

     per-process dynamical memory:  1969.9 Mb

     Self-consistent Calculation

     iteration #  1     ecut=    80.00 Ry     beta= 0.70
     Davidson diagonalization with overlap
     ethr =  1.00E-06,  avg # of iterations = 10.6

     total cpu time spent up to now is       88.4 secs

     total energy              =    -282.03515566 Ry
     estimated scf accuracy    <       0.05013900 Ry

     iteration #  2     ecut=    80.00 Ry     beta= 0.70
     Davidson diagonalization with overlap
     ethr =  1.14E-04,  avg # of iterations =  2.9

     total cpu time spent up to now is       88.9 secs

     total energy              =    -282.04980615 Ry
     estimated scf accuracy    <       0.01106661 Ry

     iteration #  3     ecut=    80.00 Ry     beta= 0.70
     Davidson diagonalization with overlap
     ethr =  2.52E-05,  avg # of iterations =  2.3

     total cpu time spent up to now is       89.3 secs

     total energy              =    -282.05187959 Ry
     estimated scf accuracy    <       0.00021642 Ry

     iteration #  4     ecut=    80.00 Ry     beta= 0.70
     Davidson diagonalization with overlap
     ethr =  4.92E-07,  avg # of iterations =  4.5

     total cpu time spent up to now is       89.8 secs

     total energy              =    -282.05197181 Ry
     estimated scf accuracy    <       0.00008858 Ry

     iteration #  5     ecut=    80.00 Ry     beta= 0.70
     Davidson diagonalization with overlap
     ethr =  2.01E-07,  avg # of iterations =  2.3

     total cpu time spent up to now is       90.2 secs

     total energy              =    -282.05198420 Ry
     estimated scf accuracy    <       0.00000364 Ry

     iteration #  6     ecut=    80.00 Ry     beta= 0.70
     Davidson diagonalization with overlap
     ethr =  8.27E-09,  avg # of iterations =  5.4

     total cpu time spent up to now is       90.8 secs

     total energy              =    -282.05198742 Ry
     estimated scf accuracy    <       0.00000213 Ry

     iteration #  7     ecut=    80.00 Ry     beta= 0.70
     Davidson diagonalization with overlap
     ethr =  4.85E-09,  avg # of iterations =  2.1

     total cpu time spent up to now is       91.2 secs

     total energy              =    -282.05198792 Ry
     estimated scf accuracy    <          7.5E-09 Ry

     iteration #  8     ecut=    80.00 Ry     beta= 0.70
     Davidson diagonalization with overlap
     ethr =  1.71E-11,  avg # of iterations =  9.8

     total cpu time spent up to now is       92.2 secs

     total energy              =    -282.05198796 Ry
     estimated scf accuracy    <          1.2E-09 Ry

     iteration #  9     ecut=    80.00 Ry     beta= 0.70
     Davidson diagonalization with overlap
     ethr =  2.77E-12,  avg # of iterations =  3.5

     total cpu time spent up to now is       92.7 secs

     total energy              =    -282.05198796 Ry
     estimated scf accuracy    <          8.3E-11 Ry

     iteration # 10     ecut=    80.00 Ry     beta= 0.70
     Davidson diagonalization with overlap
     ethr =  1.89E-13,  avg # of iterations =  5.5

     total cpu time spent up to now is       93.3 secs

     total energy              =    -282.05198796 Ry
     estimated scf accuracy    <          3.1E-12 Ry

     iteration # 11     ecut=    80.00 Ry     beta= 0.70
     Davidson diagonalization with overlap
     ethr =  1.00E-13,  avg # of iterations =  2.0

     total cpu time spent up to now is       93.7 secs

     total energy              =    -282.05198796 Ry
     estimated scf accuracy    <          1.4E-12 Ry

     iteration # 12     ecut=    80.00 Ry     beta= 0.70
     Davidson diagonalization with overlap
     ethr =  1.00E-13,  avg # of iterations =  1.0

     total cpu time spent up to now is       94.1 secs

     total energy              =    -282.05198796 Ry
     estimated scf accuracy    <          3.0E-13 Ry

     iteration # 13     ecut=    80.00 Ry     beta= 0.70
     Davidson diagonalization with overlap
     ethr =  1.00E-13,  avg # of iterations =  1.0

     total cpu time spent up to now is       94.5 secs

     total energy              =    -282.05198796 Ry
     estimated scf accuracy    <          4.1E-14 Ry

     iteration # 14     ecut=    80.00 Ry     beta= 0.70
     Davidson diagonalization with overlap
     ethr =  1.00E-13,  avg # of iterations =  1.0

     total cpu time spent up to now is       94.8 secs

     total energy              =    -282.05198796 Ry
     estimated scf accuracy    <          2.7E-16 Ry

     iteration # 15     ecut=    80.00 Ry     beta= 0.70
     Davidson diagonalization with overlap
     ethr =  1.00E-13,  avg # of iterations =  1.0

     total cpu time spent up to now is       95.2 secs

     total energy              =    -282.05198796 Ry
     estimated scf accuracy    <          6.5E-16 Ry

     iteration # 16     ecut=    80.00 Ry     beta= 0.70
     Davidson diagonalization with overlap
     ethr =  1.00E-13,  avg # of iterations =  1.0

     total cpu time spent up to now is       95.5 secs

     total energy              =    -282.05198796 Ry
     estimated scf accuracy    <          5.3E-16 Ry

     iteration # 17     ecut=    80.00 Ry     beta= 0.70
     Davidson diagonalization with overlap
     ethr =  1.00E-13,  avg # of iterations =  1.0

     total cpu time spent up to now is       95.9 secs

     total energy              =    -282.05198796 Ry
     estimated scf accuracy    <          6.0E-16 Ry

     iteration # 18     ecut=    80.00 Ry     beta= 0.70
     Davidson diagonalization with overlap
     ethr =  1.00E-13,  avg # of iterations =  1.0

     total cpu time spent up to now is       96.2 secs

     total energy              =    -282.05198796 Ry
     estimated scf accuracy    <          2.3E-15 Ry

     iteration # 19     ecut=    80.00 Ry     beta= 0.70
     Davidson diagonalization with overlap
     ethr =  1.00E-13,  avg # of iterations =  1.0

     total cpu time spent up to now is       96.6 secs

     total energy              =    -282.05198796 Ry
     estimated scf accuracy    <          1.2E-15 Ry

     iteration # 20     ecut=    80.00 Ry     beta= 0.70
     Davidson diagonalization with overlap
     ethr =  1.00E-13,  avg # of iterations =  1.0

     total cpu time spent up to now is       96.9 secs

     total energy              =    -282.05198796 Ry
     estimated scf accuracy    <          1.0E-15 Ry

     iteration # 21     ecut=    80.00 Ry     beta= 0.70
     Davidson diagonalization with overlap
     ethr =  1.00E-13,  avg # of iterations =  1.0

     total cpu time spent up to now is       97.3 secs

     End of self-consistent calculation

          k = 0.0630 0.0630 0.0630 ( 18835 PWs)   bands (ev):

   -17.7258 -17.4475 -17.4475 -17.4216 -17.4216 -17.4216  -8.9213  -8.1454
    -8.1454  -4.4966  -4.4966  -4.4937  -1.8937  -0.3209  -0.3209  -0.1499
     2.0854   2.0854   2.1536   2.2570   2.3108   2.3108

          k = 0.0630 0.0630 0.1891 ( 18839 PWs)   bands (ev):

   -17.7257 -17.4475 -17.4469 -17.4217 -17.4217 -17.4216  -8.8782  -8.1992
    -8.1444  -4.4946  -4.4946  -4.4873  -2.2378  -0.2904  -0.2440   0.3979
     1.9651   2.0173   2.1564   2.2052   2.2730   2.3141

          k = 0.0630 0.0630 0.3151 ( 18799 PWs)   bands (ev):

   -17.7255 -17.4475 -17.4461 -17.4217 -17.4217 -17.4216  -8.8020  -8.2905
    -8.1428  -4.4917  -4.4906  -4.4804  -2.5524  -0.2445  -0.1930   1.0226
     1.8322   1.9360   2.1234   2.1705   2.2232   2.4517

          k = 0.0630 0.0630 0.4412 ( 18778 PWs)   bands (ev):

   -17.7254 -17.4475 -17.4455 -17.4218 -17.4218 -17.4216  -8.7254  -8.3779
    -8.1418  -4.4897  -4.4874  -4.4766  -2.7209  -0.2098  -0.1567   1.2748
     1.7454   1.9089   2.0897   2.1272   2.1935   2.9034

          k = 0.0630 0.1891 0.1891 ( 18800 PWs)   bands (ev):

   -17.7256 -17.4472 -17.4466 -17.4217 -17.4217 -17.4217  -8.8356  -8.2193
    -8.1728  -4.4953  -4.4930  -4.4826  -2.5312  -0.2416   0.1004   0.6004
     1.7915   1.9599   2.1403   2.1979   2.2881   2.3714

          k = 0.0630 0.1891 0.3151 ( 18797 PWs)   bands (ev):

   -17.7254 -17.4471 -17.4459 -17.4218 -17.4217 -17.4217  -8.7600  -8.2949
    -8.1814  -4.4937  -4.4901  -4.4800  -2.8225  -0.1902   0.2805   1.0311
     1.6598   1.8915   2.0899   2.1946   2.3409   2.5172

          k = 0.0630 0.1891 0.4412 ( 18789 PWs)   bands (ev):

   -17.7252 -17.4471 -17.4453 -17.4218 -17.4218 -17.4217  -8.6824  -8.3781
    -8.1819  -4.4922  -4.4861  -4.4811  -2.9843  -0.1513   0.3477   1.1768
     1.6317   1.9089   2.0161   2.1917   2.3339   2.9810

          k = 0.0630 0.3151 0.3151 ( 18796 PWs)   bands (ev):

   -17.7252 -17.4468 -17.4454 -17.4219 -17.4217 -17.4217  -8.6848  -8.3184
    -8.2346  -4.4947  -4.4895  -4.4813  -3.1052  -0.1309   0.8242   1.0470
     1.5669   1.8273   2.0101   2.1699   2.5357   2.7080

          k = 0.0630 0.3151 0.4412 ( 18801 PWs)   bands (ev):

   -17.7251 -17.4467 -17.4449 -17.4219 -17.4218 -17.4217  -8.6038  -8.3789
    -8.2564  -4.4942  -4.4896  -4.4831  -3.2666  -0.0853   1.0201   1.0654
     1.6037   1.8319   1.9408   2.1429   2.5810   3.1967

          k = 0.0630 0.4412 0.4412 ( 18777 PWs)   bands (ev):

   -17.7249 -17.4465 -17.4445 -17.4220 -17.4218 -17.4218  -8.5095  -8.3851
    -8.3421  -4.4952  -4.4939  -4.4827  -3.4306  -0.0341   0.9523   1.5188
     1.6076   1.7969   1.9188   2.0534   2.7252   3.6185

          k = 0.1891 0.1891 0.1891 ( 18814 PWs)   bands (ev):

   -17.7254 -17.4466 -17.4466 -17.4217 -17.4217 -17.4217  -8.7942  -8.2177
    -8.2177  -4.4962  -4.4962  -4.4780  -2.7949   0.1359   0.1359   0.7397
     1.7565   1.7565   2.0996   2.3121   2.3640   2.3640

          k = 0.1891 0.1891 0.3151 ( 18819 PWs)   bands (ev):

   -17.7252 -17.4466 -17.4458 -17.4218 -17.4218 -17.4217  -8.7204  -8.2966
    -8.2154  -4.4976  -4.4951  -4.4777  -3.0715   0.1912   0.4048   1.0368
     1.5702   1.7249   2.1744   2.3286   2.3895   2.5312

          k = 0.1891 0.1891 0.4412 ( 18764 PWs)   bands (ev):

   -17.7251 -17.4466 -17.4452 -17.4218 -17.4218 -17.4217  -8.6432  -8.3775
    -8.2138  -4.4985  -4.4902  -4.4820  -3.2293   0.2349   0.5033   1.1480
     1.4580   1.7961   2.1532   2.3174   2.4045   3.0254

          k = 0.1891 0.3151 0.3151 ( 18781 PWs)   bands (ev):

   -17.7251 -17.4462 -17.4454 -17.4219 -17.4218 -17.4218  -8.6493  -8.3162
    -8.2616  -4.4997  -4.4995  -4.4804  -3.3432   0.3373   0.8609   1.0566
     1.4626   1.6098   2.2438   2.3728   2.5349   2.6929

          k = 0.1891 0.3151 0.4412 ( 18770 PWs)   bands (ev):

   -17.7249 -17.4461 -17.4449 -17.4219 -17.4218 -17.4218  -8.5721  -8.3771
    -8.2744  -4.5026  -4.4976  -4.4860  -3.5021   0.3972   1.0492   1.0937
     1.3909   1.6639   2.2265   2.3545   2.5912   3.2131

          k = 0.1891 0.4412 0.4412 ( 18781 PWs)   bands (ev):

   -17.7248 -17.4459 -17.4445 -17.4220 -17.4218 -17.4218  -8.4875  -8.3824
    -8.3459  -4.5027  -4.5024  -4.4916  -3.6642   0.4668   1.0008   1.3587
     1.3828   1.7974   2.2385   2.2947   2.7302   3.6457

          k = 0.3151 0.3151 0.3151 ( 18802 PWs)   bands (ev):

   -17.7249 -17.4454 -17.4454 -17.4219 -17.4219 -17.4219  -8.5862  -8.3130
    -8.3130  -4.5063  -4.5063  -4.4868  -3.6121   0.9282   0.9282   1.0737
     1.4080   1.4080   2.5115   2.5115   2.5589   2.7915

          k = 0.3151 0.3151 0.4412 ( 18775 PWs)   bands (ev):

   -17.7248 -17.4454 -17.4448 -17.4219 -17.4219 -17.4219  -8.5159  -8.3748
    -8.3107  -4.5111  -4.5069  -4.4952  -3.7729   1.0052   1.0860   1.1579
     1.2635   1.5649   2.4793   2.5213   2.6347   3.3353

          k = 0.3151 0.4412 0.4412 ( 18757 PWs)   bands (ev):

   -17.7246 -17.4451 -17.4445 -17.4220 -17.4219 -17.4219  -8.4507  -8.3787
    -8.3562  -4.5139  -4.5128  -4.5052  -3.9370   1.0704   1.1622   1.2190
     1.2676   1.8027   2.5449   2.5571   2.7378   3.7454

          k = 0.4412 0.4412 0.4412 ( 18769 PWs)   bands (ev):

   -17.7245 -17.4445 -17.4445 -17.4220 -17.4220 -17.4220  -8.4116  -8.3760
    -8.3760  -4.5201  -4.5201  -4.5164  -4.1040   1.1141   1.1444   1.1444
     1.8069   1.8069   2.7202   2.7202   2.7536   4.0732

     highest occupied level (ev):     4.0732

!    total energy              =    -282.05198796 Ry
     estimated scf accuracy    <          1.9E-17 Ry

     The total energy is the sum of the following terms:
     one-electron contribution =    -116.30481742 Ry
     hartree contribution      =      75.20569713 Ry
     xc contribution           =     -81.01934251 Ry
     ewald contribution        =    -159.93352515 Ry

     convergence has been achieved in  21 iterations

     Forces acting on atoms (cartesian axes, Ry/au):

     atom    1 type  1   force =     0.00000000    0.00000000    0.00000000
     atom    2 type  2   force =     0.00000000    0.00000000    0.00000000
     atom    3 type  3   force =     0.00000000    0.00000000    0.00000000
     atom    4 type  3   force =     0.00000000    0.00000000    0.00000000
     atom    5 type  3   force =     0.00000000    0.00000000    0.00000000
     The non-local contrib.  to forces
     atom    1 type  1   force =     0.00000000    0.00000000    0.00000000
     atom    2 type  2   force =     0.00000000    0.00000000    0.00000000
     atom    3 type  3   force =     0.00000000    0.00000000    0.00000000
     atom    4 type  3   force =     0.00000000    0.00000000    0.00000000
     atom    5 type  3   force =     0.00000000    0.00000000    0.00000000
     The ionic contribution  to forces
     atom    1 type  1   force =     0.00000000   -0.00000000    0.00000000
     atom    2 type  2   force =     0.00000000    0.00000000    0.00000000
     atom    3 type  3   force =    -0.00000000    0.00000000    0.00000000
     atom    4 type  3   force =     0.00000000    0.00000000   -0.00000000
     atom    5 type  3   force =     0.00000000   -0.00000000    0.00000000
     The local contribution  to forces
     atom    1 type  1   force =    -0.00000000   -0.00000000   -0.00000000
     atom    2 type  2   force =     0.00000000    0.00000000   -0.00000000
     atom    3 type  3   force =     0.00000000   -0.00000000   -0.00000000
     atom    4 type  3   force =    -0.00000000   -0.00000000    0.00000000
     atom    5 type  3   force =     0.00000000    0.00000000   -0.00000000
     The core correction contribution to forces
     atom    1 type  1   force =    -0.00000000   -0.00000000   -0.00000000
     atom    2 type  2   force =     0.00000000    0.00000000    0.00000000
     atom    3 type  3   force =     0.00000000    0.00000000    0.00000000
     atom    4 type  3   force =     0.00000000    0.00000000    0.00000000
     atom    5 type  3   force =     0.00000000    0.00000000    0.00000000
     The Hubbard contrib.    to forces
     atom    1 type  1   force =     0.00000000    0.00000000    0.00000000
     atom    2 type  2   force =     0.00000000    0.00000000    0.00000000
     atom    3 type  3   force =     0.00000000    0.00000000    0.00000000
     atom    4 type  3   force =     0.00000000    0.00000000    0.00000000
     atom    5 type  3   force =     0.00000000    0.00000000    0.00000000
     The SCF correction term to forces
     atom    1 type  1   force =    -0.00000000   -0.00000000    0.00000000
     atom    2 type  2   force =    -0.00000000   -0.00000000   -0.00000000
     atom    3 type  3   force =    -0.00000000    0.00000000   -0.00000000
     atom    4 type  3   force =    -0.00000000   -0.00000000    0.00000000
     atom    5 type  3   force =     0.00000000   -0.00000000   -0.00000000

     Total force =     0.000000     Total SCF correction =     0.000000


     Computing stress (Cartesian axis) and pressure

          total   stress  (Ry/bohr**3)                   (kbar)     P=        0.04
   0.00000028   0.00000000   0.00000000            0.04        0.00        0.00
   0.00000000   0.00000028   0.00000000            0.00        0.04        0.00
   0.00000000   0.00000000   0.00000028            0.00        0.00        0.04


     Writing all to output data dir ./out/pwscf.save/
 
     init_run     :      9.79s CPU      5.43s WALL (       2 calls)
     electrons    :     76.39s CPU     77.82s WALL (       7 calls)
     update_pot   :     36.81s CPU      9.29s WALL (       5 calls)
     forces       :      1.68s CPU      1.58s WALL (       7 calls)
     stress       :      2.98s CPU      3.25s WALL (       7 calls)

     Called by init_run:
     wfcinit      :      1.07s CPU      2.09s WALL (       2 calls)
                                        2.09s GPU  (       2 calls)
     potinit      :      6.26s CPU      0.80s WALL (       2 calls)
     hinit0       :      2.25s CPU      2.26s WALL (       2 calls)

     Called by electrons:
     c_bands      :     55.67s CPU     58.39s WALL (     172 calls)
     sum_band     :     13.08s CPU     13.23s WALL (     172 calls)
     v_of_rho     :      1.96s CPU      1.06s WALL (     178 calls)
     mix_rho      :      5.13s CPU      4.46s WALL (     172 calls)

     Called by c_bands:
     init_us_2    :      4.25s CPU      4.67s WALL (    7200 calls)
     init_us_2:gp :      4.12s CPU      4.55s WALL (    7200 calls)
     cegterg      :     41.14s CPU     41.55s WALL (    3440 calls)

     Called by *egterg:
     cdiaghg      :      9.01s CPU      9.80s WALL (   12411 calls)
                                        9.73s GPU  (   12411 calls)
     h_psi        :     24.58s CPU     25.29s WALL (   12571 calls)
                                       25.18s GPU  (   12571 calls)
     g_psi        :      0.03s CPU      0.25s WALL (    9091 calls)
                                        0.18s GPU  (    9091 calls)

     Called by h_psi:
     h_psi:calbec :      0.78s CPU      1.86s WALL (   12571 calls)
                                        1.78s GPU  (   12571 calls)
     vloc_psi     :     20.44s CPU     20.74s WALL (   12571 calls)
                                       20.65s GPU  (   12571 calls)
     add_vuspsi   :      1.46s CPU      2.08s WALL (   12571 calls)
                                        2.00s GPU  (   12571 calls)

     General routines
     calbec       :      0.68s CPU      1.03s WALL (   13271 calls)
     fft          :      0.03s CPU      0.10s WALL (    1954 calls)
                                        0.09s GPU  (    1954 calls)
     ffts         :      0.00s CPU      0.01s WALL (     172 calls)
                                        0.01s GPU  (     172 calls)
     fftw         :      0.41s CPU     15.96s WALL (   48340 calls)
                                       15.66s GPU  (   48340 calls)
 
     Parallel routines
 
     PWSCF        :   2m 8.15s CPU   1m38.15s WALL

 
   This run was terminated on:  17:57:38  18Feb2024            

=------------------------------------------------------------------------------=
   JOB DONE.
=------------------------------------------------------------------------------=
