
     Program PHONON v.7.1 starts on  4Nov2022 at 21:33:26 
        Git branch: develop_bands
        Last git commit: 816aee40db40e6b706df606a62b57acfcd26b4df
        Last git commit date: Fri Oct 21 11:20:44 2022 +0200
        Last git commit subject: improvement for magnons

     This program is part of the open-source Quantum ESPRESSO suite
     for quantum simulation of materials; please cite
         "P. Giannozzi et al., J. Phys.:Condens. Matter 21 395502 (2009);
         "P. Giannozzi et al., J. Phys.:Condens. Matter 29 465901 (2017);
         "P. Giannozzi et al., J. Chem. Phys. 152 154105 (2020);
          URL http://www.quantum-espresso.org", 
     in publications or presentations arising from this work. More details at
     http://www.quantum-espresso.org/quote

     Parallel version (MPI & OpenMP), running on       1 processor cores
     Number of MPI processes:                 1
     Threads/MPI process:                     1

     MPI processes distributed on     1 nodes
     488587 MiB available memory on the printing compute node when the environment starts
 
     Reading input from /ceph/hpc/home/eulaurab/materials-for-max-coe-enccs-workshop-2022/Day-2/exercise_ph/step2/../inputs/ph.CnSnI3.in
      Title line not specified: using 'default'.

     Reading xml data from directory:

     ./out/pwscf.save/
 
     Subspace diagonalization in iterative solution of the eigenvalue problem:
     a serial algorithm will be used


     IMPORTANT: XC functional enforced from input :
     Exchange-correlation= PBESOL
                           (   1   4  10   8   0   0   0)
     Any further DFT definition will be discarded
     Please, verify this is what you really want

 
     G-vector sticks info
     --------------------
     sticks:   dense  smooth     PW     G-vecs:    dense   smooth      PW
     Sum        3405    3405    941               150165   150165   21559
 
     Using Slab Decomposition
 
     Reading collected, re-writing distributed wavefunctions

     Calculation of q =    0.0000000   0.0000000   0.0000000

     default                                                                    

     bravais-lattice index     =            0
     lattice parameter (alat)  =      11.6825  a.u.
     unit-cell volume          =    1555.1857 (a.u.)^3
     number of atoms/cell      =            5
     number of atomic types    =            3
     kinetic-energy cut-off    =      80.0000  Ry
     charge density cut-off    =     320.0000  Ry
     convergence threshold     =      1.0E-16
     beta                      =       0.7000
     number of iterations used =            4
     Exchange-correlation= PBESOL
                           (   1   4  10   8   0   0   0)


     celldm(1)=   11.68251  celldm(2)=    0.00000  celldm(3)=    0.00000
     celldm(4)=    0.00000  celldm(5)=    0.00000  celldm(6)=    0.00000

     crystal axes: (cart. coord. in units of alat)
               a(1) = (  0.9917  0.0000  0.0000 )  
               a(2) = (  0.0000  0.9917  0.0000 )  
               a(3) = (  0.0000  0.0000  0.9917 )  

     reciprocal axes: (cart. coord. in units 2 pi/alat)
               b(1) = (  1.0083  0.0000  0.0000 )  
               b(2) = (  0.0000  1.0083  0.0000 )  
               b(3) = (  0.0000  0.0000  1.0083 )  


     Atoms inside the unit cell: 

     Cartesian axes

     site n.  atom      mass           positions (alat units)
        1     Cs 132.9055   tau(    1) = (    0.49586    0.49586    0.49586  )
        2     Sn 118.7100   tau(    2) = (    0.00000    0.00000    0.00000  )
        3     I  126.9045   tau(    3) = (    0.49586    0.00000    0.00000  )
        4     I  126.9045   tau(    4) = (    0.00000    0.00000    0.49586  )
        5     I  126.9045   tau(    5) = (    0.00000    0.49586    0.00000  )

     Computing dynamical matrix for 
                    q = (   0.0000000   0.0000000   0.0000000 )
 
     49 Sym.Ops. (with q -> -q+G )


     G cutoff = 1106.2746  ( 150165 G-vectors)     FFT grid: ( 72, 72, 72)
     number of k points=    20
                       cart. coord. in units 2pi/alat
        k(    1) = (   0.0630215   0.0630215   0.0630215), wk =   0.0312500
        k(    2) = (   0.0630215   0.0630215   0.1890646), wk =   0.0937500
        k(    3) = (   0.0630215   0.0630215   0.3151077), wk =   0.0937500
        k(    4) = (   0.0630215   0.0630215   0.4411507), wk =   0.0937500
        k(    5) = (   0.0630215   0.1890646   0.1890646), wk =   0.0937500
        k(    6) = (   0.0630215   0.1890646   0.3151077), wk =   0.1875000
        k(    7) = (   0.0630215   0.1890646   0.4411507), wk =   0.1875000
        k(    8) = (   0.0630215   0.3151077   0.3151077), wk =   0.0937500
        k(    9) = (   0.0630215   0.3151077   0.4411507), wk =   0.1875000
        k(   10) = (   0.0630215   0.4411507   0.4411507), wk =   0.0937500
        k(   11) = (   0.1890646   0.1890646   0.1890646), wk =   0.0312500
        k(   12) = (   0.1890646   0.1890646   0.3151077), wk =   0.0937500
        k(   13) = (   0.1890646   0.1890646   0.4411507), wk =   0.0937500
        k(   14) = (   0.1890646   0.3151077   0.3151077), wk =   0.0937500
        k(   15) = (   0.1890646   0.3151077   0.4411507), wk =   0.1875000
        k(   16) = (   0.1890646   0.4411507   0.4411507), wk =   0.0937500
        k(   17) = (   0.3151077   0.3151077   0.3151077), wk =   0.0312500
        k(   18) = (   0.3151077   0.3151077   0.4411507), wk =   0.0937500
        k(   19) = (   0.3151077   0.4411507   0.4411507), wk =   0.0937500
        k(   20) = (   0.4411507   0.4411507   0.4411507), wk =   0.0312500

     PseudoPot. # 1 for Cs read from file:
     /ceph/hpc/home/eulaurab/materials-for-max-coe-enccs-workshop-2022/Day-2/exercise_ph/step1/../pseudo/Cs-nc-pbesol.upf
     MD5 check sum: 9d2f2206a14dc5b3b3f3fbfae186bed4
     Pseudo is Norm-conserving + core correction, Zval =  9.0
     Generated using ONCVPSP code by D. R. Hamann
     Using radial grid of 2384 points,  8 beta functions with: 
                l(1) =   0
                l(2) =   0
                l(3) =   1
                l(4) =   1
                l(5) =   2
                l(6) =   2
                l(7) =   3
                l(8) =   3

     PseudoPot. # 2 for Sn read from file:
     /ceph/hpc/home/eulaurab/materials-for-max-coe-enccs-workshop-2022/Day-2/exercise_ph/step1/../pseudo/Sn-nc-pbesol.upf
     MD5 check sum: c2995d571af40102bfea7461443d92cf
     Pseudo is Norm-conserving + core correction, Zval = 14.0
     Generated using ONCVPSP code by D. R. Hamann
     Using radial grid of 1628 points,  6 beta functions with: 
                l(1) =   0
                l(2) =   0
                l(3) =   1
                l(4) =   1
                l(5) =   2
                l(6) =   2

     PseudoPot. # 3 for I  read from file:
     /ceph/hpc/home/eulaurab/materials-for-max-coe-enccs-workshop-2022/Day-2/exercise_ph/step1/../pseudo/I-nc-pbesol.upf
     MD5 check sum: 80ed5ceb2eb9c553cfb6760a299d9c5b
     Pseudo is Norm-conserving + core correction, Zval =  7.0
     Generated using ONCVPSP code by D. R. Hamann
     Using radial grid of 1182 points,  6 beta functions with: 
                l(1) =   0
                l(2) =   0
                l(3) =   1
                l(4) =   1
                l(5) =   2
                l(6) =   2

     Mode symmetry, O_h (m-3m)  point group:


     Atomic displacements:
     There are    5 irreducible representations

     Representation     1      3 modes -  To be done

     Representation     2      3 modes -  To be done

     Representation     3      3 modes -  To be done

     Representation     4      3 modes -  To be done

     Representation     5      3 modes -  To be done



     Alpha used in Ewald sum =   2.8000
     PHONON       :     11.86s CPU     13.08s WALL



     Representation #   1 modes #   1   2   3

     Self-consistent Calculation

      iter #   1 total cpu time :    21.4 secs   av.it.:   5.2
      thresh= 1.000E-02 alpha_mix =  0.700 |ddv_scf|^2 =  2.897E-08

      iter #   2 total cpu time :    29.8 secs   av.it.:  17.4
      thresh= 1.702E-05 alpha_mix =  0.700 |ddv_scf|^2 =  2.506E-08

      iter #   3 total cpu time :    38.0 secs   av.it.:  16.9
      thresh= 1.583E-05 alpha_mix =  0.700 |ddv_scf|^2 =  3.113E-10

      iter #   4 total cpu time :    46.3 secs   av.it.:  16.7
      thresh= 1.764E-06 alpha_mix =  0.700 |ddv_scf|^2 =  4.677E-12

      iter #   5 total cpu time :    54.8 secs   av.it.:  17.8
      thresh= 2.163E-07 alpha_mix =  0.700 |ddv_scf|^2 =  2.111E-13

      iter #   6 total cpu time :    63.4 secs   av.it.:  17.7
      thresh= 4.595E-08 alpha_mix =  0.700 |ddv_scf|^2 =  1.442E-14

      iter #   7 total cpu time :    71.5 secs   av.it.:  16.4
      thresh= 1.201E-08 alpha_mix =  0.700 |ddv_scf|^2 =  9.467E-16

      iter #   8 total cpu time :    79.5 secs   av.it.:  16.4
      thresh= 3.077E-09 alpha_mix =  0.700 |ddv_scf|^2 =  1.681E-17

     End of self-consistent calculation

     Convergence has been achieved 


     Representation #   2 modes #   4   5   6

     Self-consistent Calculation

      iter #   1 total cpu time :    89.8 secs   av.it.:   7.8
      thresh= 1.000E-02 alpha_mix =  0.700 |ddv_scf|^2 =  4.361E-07

      iter #   2 total cpu time :    98.2 secs   av.it.:  17.7
      thresh= 6.604E-05 alpha_mix =  0.700 |ddv_scf|^2 =  6.959E-07

      iter #   3 total cpu time :   106.3 secs   av.it.:  16.5
      thresh= 8.342E-05 alpha_mix =  0.700 |ddv_scf|^2 =  1.600E-09

      iter #   4 total cpu time :   114.9 secs   av.it.:  17.6
      thresh= 4.000E-06 alpha_mix =  0.700 |ddv_scf|^2 =  2.259E-11

      iter #   5 total cpu time :   123.3 secs   av.it.:  17.3
      thresh= 4.753E-07 alpha_mix =  0.700 |ddv_scf|^2 =  1.767E-12

      iter #   6 total cpu time :   131.8 secs   av.it.:  17.4
      thresh= 1.329E-07 alpha_mix =  0.700 |ddv_scf|^2 =  1.399E-13

      iter #   7 total cpu time :   140.1 secs   av.it.:  16.4
      thresh= 3.740E-08 alpha_mix =  0.700 |ddv_scf|^2 =  2.510E-15

      iter #   8 total cpu time :   148.5 secs   av.it.:  17.2
      thresh= 5.010E-09 alpha_mix =  0.700 |ddv_scf|^2 =  2.558E-16

      iter #   9 total cpu time :   156.6 secs   av.it.:  16.7
      thresh= 1.599E-09 alpha_mix =  0.700 |ddv_scf|^2 =  9.233E-18

     End of self-consistent calculation

     Convergence has been achieved 


     Representation #   3 modes #   7   8   9

     Self-consistent Calculation

      iter #   1 total cpu time :   165.9 secs   av.it.:   4.1
      thresh= 1.000E-02 alpha_mix =  0.700 |ddv_scf|^2 =  3.426E-08

      iter #   2 total cpu time :   174.2 secs   av.it.:  17.0
      thresh= 1.851E-05 alpha_mix =  0.700 |ddv_scf|^2 =  2.051E-08

      iter #   3 total cpu time :   182.4 secs   av.it.:  16.9
      thresh= 1.432E-05 alpha_mix =  0.700 |ddv_scf|^2 =  7.182E-10

      iter #   4 total cpu time :   190.7 secs   av.it.:  17.1
      thresh= 2.680E-06 alpha_mix =  0.700 |ddv_scf|^2 =  1.509E-11

      iter #   5 total cpu time :   199.2 secs   av.it.:  17.4
      thresh= 3.885E-07 alpha_mix =  0.700 |ddv_scf|^2 =  7.174E-13

      iter #   6 total cpu time :   207.6 secs   av.it.:  17.5
      thresh= 8.470E-08 alpha_mix =  0.700 |ddv_scf|^2 =  1.846E-14

      iter #   7 total cpu time :   215.8 secs   av.it.:  16.4
      thresh= 1.359E-08 alpha_mix =  0.700 |ddv_scf|^2 =  1.232E-15

      iter #   8 total cpu time :   223.8 secs   av.it.:  16.3
      thresh= 3.509E-09 alpha_mix =  0.700 |ddv_scf|^2 =  3.239E-17

     End of self-consistent calculation

     Convergence has been achieved 


     Representation #   4 modes #  10  11  12

     Self-consistent Calculation

      iter #   1 total cpu time :   234.4 secs   av.it.:   6.0
      thresh= 1.000E-02 alpha_mix =  0.700 |ddv_scf|^2 =  4.322E-08

      iter #   2 total cpu time :   242.9 secs   av.it.:  17.6
      thresh= 2.079E-05 alpha_mix =  0.700 |ddv_scf|^2 =  5.228E-08

      iter #   3 total cpu time :   251.0 secs   av.it.:  16.7
      thresh= 2.286E-05 alpha_mix =  0.700 |ddv_scf|^2 =  9.036E-11

      iter #   4 total cpu time :   259.3 secs   av.it.:  17.1
      thresh= 9.506E-07 alpha_mix =  0.700 |ddv_scf|^2 =  1.184E-12

      iter #   5 total cpu time :   267.8 secs   av.it.:  17.1
      thresh= 1.088E-07 alpha_mix =  0.700 |ddv_scf|^2 =  5.252E-14

      iter #   6 total cpu time :   276.4 secs   av.it.:  17.8
      thresh= 2.292E-08 alpha_mix =  0.700 |ddv_scf|^2 =  1.135E-14

      iter #   7 total cpu time :   284.7 secs   av.it.:  16.9
      thresh= 1.065E-08 alpha_mix =  0.700 |ddv_scf|^2 =  3.233E-16

      iter #   8 total cpu time :   292.9 secs   av.it.:  16.8
      thresh= 1.798E-09 alpha_mix =  0.700 |ddv_scf|^2 =  1.339E-17

     End of self-consistent calculation

     Convergence has been achieved 


     Representation #   5 modes #  13  14  15

     Self-consistent Calculation

      iter #   1 total cpu time :   303.4 secs   av.it.:   5.0
      thresh= 1.000E-02 alpha_mix =  0.700 |ddv_scf|^2 =  7.150E-09

      iter #   2 total cpu time :   311.5 secs   av.it.:  16.1
      thresh= 8.456E-06 alpha_mix =  0.700 |ddv_scf|^2 =  8.346E-10

      iter #   3 total cpu time :   319.7 secs   av.it.:  16.6
      thresh= 2.889E-06 alpha_mix =  0.700 |ddv_scf|^2 =  6.599E-12

      iter #   4 total cpu time :   327.9 secs   av.it.:  16.1
      thresh= 2.569E-07 alpha_mix =  0.700 |ddv_scf|^2 =  7.294E-14

      iter #   5 total cpu time :   335.9 secs   av.it.:  15.8
      thresh= 2.701E-08 alpha_mix =  0.700 |ddv_scf|^2 =  5.101E-16

      iter #   6 total cpu time :   344.1 secs   av.it.:  16.9
      thresh= 2.259E-09 alpha_mix =  0.700 |ddv_scf|^2 =  9.710E-18

     End of self-consistent calculation

     Convergence has been achieved 
 
     Number of q in the star =    1
     List of q in the star:
          1   0.000000000   0.000000000   0.000000000

     Diagonalizing the dynamical matrix

     q = (    0.000000000   0.000000000   0.000000000 ) 

 **************************************************************************
     freq (    1) =      -0.154619 [THz] =      -5.157525 [cm-1]
     freq (    2) =      -0.154619 [THz] =      -5.157525 [cm-1]
     freq (    3) =      -0.154619 [THz] =      -5.157525 [cm-1]
     freq (    4) =       0.242591 [THz] =       8.091968 [cm-1]
     freq (    5) =       0.242591 [THz] =       8.091968 [cm-1]
     freq (    6) =       0.242591 [THz] =       8.091968 [cm-1]
     freq (    7) =       0.694290 [THz] =      23.159010 [cm-1]
     freq (    8) =       0.694290 [THz] =      23.159010 [cm-1]
     freq (    9) =       0.694290 [THz] =      23.159010 [cm-1]
     freq (   10) =       1.159435 [THz] =      38.674588 [cm-1]
     freq (   11) =       1.159435 [THz] =      38.674588 [cm-1]
     freq (   12) =       1.159435 [THz] =      38.674588 [cm-1]
     freq (   13) =       2.344178 [THz] =      78.193354 [cm-1]
     freq (   14) =       2.344178 [THz] =      78.193354 [cm-1]
     freq (   15) =       2.344178 [THz] =      78.193354 [cm-1]
 **************************************************************************

     Mode symmetry, O_h (m-3m)  point group:

     freq (   1-   3) =         -5.2  [cm-1]   --> T_1u G_15  G_4- I  
     freq (   4-   6) =          8.1  [cm-1]   --> T_1u G_15  G_4- I  
     freq (   7-   9) =         23.2  [cm-1]   --> T_2u G_25  G_5-    
     freq (  10-  12) =         38.7  [cm-1]   --> T_1u G_15  G_4- I  
     freq (  13-  15) =         78.2  [cm-1]   --> T_1u G_15  G_4- I  
 
     PHONON       :    326.89s CPU    347.81s WALL

     INITIALIZATION: 
     phq_setup    :      0.01s CPU      0.02s WALL (       1 calls)
     phq_init     :     11.23s CPU     11.32s WALL (       1 calls)
 
     phq_init     :     11.23s CPU     11.32s WALL (       1 calls)
     set_drhoc    :      6.64s CPU      6.66s WALL (       3 calls)
     init_vloc    :      0.01s CPU      0.01s WALL (       1 calls)
     init_us_1    :      0.03s CPU      0.03s WALL (       1 calls)
     init_us_2    :      2.67s CPU      2.80s WALL (    1020 calls)
 
     DYNAMICAL MATRIX:
     dynmat0      :      6.32s CPU      6.37s WALL (       1 calls)
     phqscf       :    315.03s CPU    334.68s WALL (       1 calls)
     dynmatrix    :      0.00s CPU      0.01s WALL (       1 calls)
 
     phqscf       :    315.03s CPU    334.68s WALL (       1 calls)
     solve_linter :    300.36s CPU    319.61s WALL (       5 calls)
     drhodv       :     14.67s CPU     15.00s WALL (       5 calls)
 
     dynmat0      :      6.32s CPU      6.37s WALL (       1 calls)
     dynmat_us    :      1.66s CPU      1.69s WALL (       1 calls)
     d2ionq       :      0.18s CPU      0.18s WALL (       1 calls)
     dynmatcc     :      4.48s CPU      4.49s WALL (       1 calls)
 
     dynmat_us    :      1.66s CPU      1.69s WALL (       1 calls)
 
     phqscf       :    315.03s CPU    334.68s WALL (       1 calls)
     solve_linter :    300.36s CPU    319.61s WALL (       5 calls)
 
     solve_linter :    300.36s CPU    319.61s WALL (       5 calls)
     dvqpsi_us    :     10.52s CPU     10.61s WALL (     300 calls)
                                       10.61s GPU  (     300 calls)
     sth_kernel   :    235.01s CPU    249.52s WALL (      39 calls)
     h_prec       :      1.17s CPU      1.18s WALL (     780 calls)
     apply_dpot_b :     11.69s CPU     12.17s WALL (    2040 calls)
     ortho        :      8.84s CPU      9.30s WALL (    2340 calls)
     cgsolve      :    195.32s CPU    199.24s WALL (    2340 calls)
     incdrhoscf   :     12.12s CPU     12.50s WALL (    2340 calls)
                                       12.48s GPU  (    2340 calls)
     dv_of_drho   :      8.65s CPU      9.98s WALL (     117 calls)
     mix_pot      :      0.89s CPU      2.44s WALL (      39 calls)
     psymdvscf    :     40.18s CPU     40.60s WALL (      39 calls)
 
     dvqpsi_us    :     10.52s CPU     10.61s WALL (     300 calls)
                                       10.61s GPU  (     300 calls)
     dvqpsi_us_on :      8.43s CPU      8.47s WALL (     300 calls)
 
     cgsolve      :    195.32s CPU    199.24s WALL (    2340 calls)
     ch_psi       :    120.15s CPU    122.46s WALL (   48515 calls)
 
     ch_psi       :    120.15s CPU    122.46s WALL (   48515 calls)
     h_psi        :     99.22s CPU    101.61s WALL (   48515 calls)
                                      101.19s GPU  (   48515 calls)
     last         :     15.92s CPU     16.28s WALL (   48515 calls)
 
     h_psi        :     99.22s CPU    101.61s WALL (   48515 calls)
                                      101.19s GPU  (   48515 calls)
     add_vuspsi   :      5.02s CPU      7.52s WALL (   48515 calls)
                                        7.09s GPU  (   48515 calls)
 
     incdrhoscf   :     12.12s CPU     12.50s WALL (    2340 calls)
                                       12.48s GPU  (    2340 calls)
 
 
      General routines
     calbec       :     15.98s CPU     16.16s WALL (   98430 calls)
     fft          :      7.90s CPU      8.28s WALL (    1787 calls)
                                        0.44s GPU  (      21 calls)
     ffts         :      0.34s CPU      0.35s WALL (     375 calls)
                                        0.02s GPU  (     300 calls)
     fftw         :      4.09s CPU     64.16s WALL (  365546 calls)
                                       61.17s GPU  (  365546 calls)
     davcio       :      1.20s CPU      9.80s WALL (    8558 calls)
     write_rec    :      0.01s CPU      0.74s WALL (      44 calls)
 
      Additional routines
     ch_psi       :    120.15s CPU    122.46s WALL (   48515 calls)
     last         :     15.92s CPU     16.28s WALL (   48515 calls)
     Hesh         :      1.70s CPU      1.75s WALL (   48515 calls)
     ch_psi_all_k :     13.30s CPU     14.13s WALL (   48515 calls)
                                       13.73s GPU  (   48515 calls)
     ch_psi_calbe :      0.97s CPU      4.01s WALL (   48515 calls)
                                        3.62s GPU  (   48515 calls)
     h_psi_bgrp   :     99.92s CPU    102.31s WALL (   48515 calls)
                                      101.93s GPU  (   48515 calls)
     h_psi        :     99.22s CPU    101.61s WALL (   48515 calls)
                                      101.19s GPU  (   48515 calls)
     h_psi:pot    :     97.58s CPU     99.95s WALL (   48515 calls)
                                       99.55s GPU  (   48515 calls)
     h_psi:calbec :      1.55s CPU      4.91s WALL (   48515 calls)
                                        4.49s GPU  (   48515 calls)
     s_psi_bgrp   :      0.56s CPU      2.13s WALL (   99370 calls)
                                        1.29s GPU  (   99370 calls)
 
 
     PHONON       :    326.89s CPU    347.81s WALL

 
   This run was terminated on:  21:39:14   4Nov2022            

=------------------------------------------------------------------------------=
   JOB DONE.
=------------------------------------------------------------------------------=
