
     Program PHONON v.7.2 starts on 18Feb2024 at 17:32:46 

     This program is part of the open-source Quantum ESPRESSO suite
     for quantum simulation of materials; please cite
         "P. Giannozzi et al., J. Phys.:Condens. Matter 21 395502 (2009);
         "P. Giannozzi et al., J. Phys.:Condens. Matter 29 465901 (2017);
         "P. Giannozzi et al., J. Chem. Phys. 152 154105 (2020);
          URL http://www.quantum-espresso.org", 
     in publications or presentations arising from this work. More details at
     http://www.quantum-espresso.org/quote

     Parallel version (MPI & OpenMP), running on       8 processor cores
     Number of MPI processes:                 1
     Threads/MPI process:                     8

     MPI processes distributed on     1 nodes
     495484 MiB available memory on the printing compute node when the environment starts
 
     Reading input from ph.CnSnI3.in
      Title line not specified: using 'default'.

     Reading xml data from directory:

     ./out/pwscf.save/
 
     Subspace diagonalization in iterative solution of the eigenvalue problem:
     a serial algorithm will be used


     IMPORTANT: XC functional enforced from input :
     Exchange-correlation= PBESOL
                           (   1   4  10   8   0   0   0)
     Any further DFT definition will be discarded
     Please, verify this is what you really want

 
     G-vector sticks info
     --------------------
     sticks:   dense  smooth     PW     G-vecs:    dense   smooth      PW
     Sum        3405    3405    941               150165   150165   21559
 
     Using Slab Decomposition
 
     Reading collected, re-writing distributed wavefunctions in ./out/

     Calculation of q =    0.0000000   0.0000000   0.0000000

     GPU acceleration is ACTIVE.
     GPU-aware MPI enabled


     default                                                                    

     bravais-lattice index     =            0
     lattice parameter (alat)  =      11.6825  a.u.
     unit-cell volume          =    1555.1879 (a.u.)^3
     number of atoms/cell      =            5
     number of atomic types    =            3
     kinetic-energy cut-off    =      80.0000  Ry
     charge density cut-off    =     320.0000  Ry
     convergence threshold     =      1.0E-16
     beta                      =       0.7000
     number of iterations used =            4
     Exchange-correlation= PBESOL
                           (   1   4  10   8   0   0   0)


     celldm(1)=   11.68251  celldm(2)=    0.00000  celldm(3)=    0.00000
     celldm(4)=    0.00000  celldm(5)=    0.00000  celldm(6)=    0.00000

     crystal axes: (cart. coord. in units of alat)
               a(1) = (  0.9917  0.0000  0.0000 )  
               a(2) = (  0.0000  0.9917  0.0000 )  
               a(3) = (  0.0000  0.0000  0.9917 )  

     reciprocal axes: (cart. coord. in units 2 pi/alat)
               b(1) = (  1.0083  0.0000  0.0000 )  
               b(2) = (  0.0000  1.0083  0.0000 )  
               b(3) = (  0.0000  0.0000  1.0083 )  


     Atoms inside the unit cell: 

     Cartesian axes

     site n.  atom      mass           positions (alat units)
        1     Cs 132.9055   tau(    1) = (    0.49586    0.49586    0.49586  )
        2     Sn 118.7100   tau(    2) = (    0.00000    0.00000    0.00000  )
        3     I  126.9045   tau(    3) = (    0.49586    0.00000    0.00000  )
        4     I  126.9045   tau(    4) = (    0.00000    0.00000    0.49586  )
        5     I  126.9045   tau(    5) = (    0.00000    0.49586    0.00000  )

     Computing dynamical matrix for 
                    q = (   0.0000000   0.0000000   0.0000000 )
 
     49 Sym.Ops. (with q -> -q+G )


     G cutoff = 1106.2746  ( 150165 G-vectors)     FFT grid: ( 72, 72, 72)
     number of k points=    20
                       cart. coord. in units 2pi/alat
        k(    1) = (   0.0630215   0.0630215   0.0630215), wk =   0.0312500
        k(    2) = (   0.0630215   0.0630215   0.1890645), wk =   0.0937500
        k(    3) = (   0.0630215   0.0630215   0.3151075), wk =   0.0937500
        k(    4) = (   0.0630215   0.0630215   0.4411505), wk =   0.0937500
        k(    5) = (   0.0630215   0.1890645   0.1890645), wk =   0.0937500
        k(    6) = (   0.0630215   0.1890645   0.3151075), wk =   0.1875000
        k(    7) = (   0.0630215   0.1890645   0.4411505), wk =   0.1875000
        k(    8) = (   0.0630215   0.3151075   0.3151075), wk =   0.0937500
        k(    9) = (   0.0630215   0.3151075   0.4411505), wk =   0.1875000
        k(   10) = (   0.0630215   0.4411505   0.4411505), wk =   0.0937500
        k(   11) = (   0.1890645   0.1890645   0.1890645), wk =   0.0312500
        k(   12) = (   0.1890645   0.1890645   0.3151075), wk =   0.0937500
        k(   13) = (   0.1890645   0.1890645   0.4411505), wk =   0.0937500
        k(   14) = (   0.1890645   0.3151075   0.3151075), wk =   0.0937500
        k(   15) = (   0.1890645   0.3151075   0.4411505), wk =   0.1875000
        k(   16) = (   0.1890645   0.4411505   0.4411505), wk =   0.0937500
        k(   17) = (   0.3151075   0.3151075   0.3151075), wk =   0.0312500
        k(   18) = (   0.3151075   0.3151075   0.4411505), wk =   0.0937500
        k(   19) = (   0.3151075   0.4411505   0.4411505), wk =   0.0937500
        k(   20) = (   0.4411505   0.4411505   0.4411505), wk =   0.0312500

     PseudoPot. # 1 for Cs read from file:
     ../../../pseudo/Cs-nc-pbesol.upf
     MD5 check sum: 9d2f2206a14dc5b3b3f3fbfae186bed4
     Pseudo is Norm-conserving + core correction, Zval =  9.0
     Generated using ONCVPSP code by D. R. Hamann
     Using radial grid of 2384 points,  8 beta functions with: 
                l(1) =   0
                l(2) =   0
                l(3) =   1
                l(4) =   1
                l(5) =   2
                l(6) =   2
                l(7) =   3
                l(8) =   3

     PseudoPot. # 2 for Sn read from file:
     ../../../pseudo/Sn-nc-pbesol.upf
     MD5 check sum: c2995d571af40102bfea7461443d92cf
     Pseudo is Norm-conserving + core correction, Zval = 14.0
     Generated using ONCVPSP code by D. R. Hamann
     Using radial grid of 1628 points,  6 beta functions with: 
                l(1) =   0
                l(2) =   0
                l(3) =   1
                l(4) =   1
                l(5) =   2
                l(6) =   2

     PseudoPot. # 3 for I  read from file:
     ../../../pseudo/I-nc-pbesol.upf
     MD5 check sum: 80ed5ceb2eb9c553cfb6760a299d9c5b
     Pseudo is Norm-conserving + core correction, Zval =  7.0
     Generated using ONCVPSP code by D. R. Hamann
     Using radial grid of 1182 points,  6 beta functions with: 
                l(1) =   0
                l(2) =   0
                l(3) =   1
                l(4) =   1
                l(5) =   2
                l(6) =   2

     Mode symmetry, O_h (m-3m)  point group:


     Atomic displacements:
     There are    5 irreducible representations

     Representation     1      3 modes -  To be done

     Representation     2      3 modes -  To be done

     Representation     3      3 modes -  To be done

     Representation     4      3 modes -  To be done

     Representation     5      3 modes -  To be done



     Alpha used in Ewald sum =   2.8000
     PHONON       :      9.35s CPU      7.57s WALL



     Representation #   1 modes #   1   2   3

     Self-consistent Calculation

      iter #   1 total cpu time :    13.7 secs   av.it.:   5.2
      thresh= 1.000E-02 alpha_mix =  0.700 |ddv_scf|^2 =  2.897E-08

      iter #   2 total cpu time :    21.5 secs   av.it.:  17.4
      thresh= 1.702E-05 alpha_mix =  0.700 |ddv_scf|^2 =  2.507E-08

      iter #   3 total cpu time :    29.5 secs   av.it.:  16.9
      thresh= 1.583E-05 alpha_mix =  0.700 |ddv_scf|^2 =  3.113E-10

      iter #   4 total cpu time :    37.2 secs   av.it.:  16.6
      thresh= 1.764E-06 alpha_mix =  0.700 |ddv_scf|^2 =  4.674E-12

      iter #   5 total cpu time :    45.2 secs   av.it.:  17.7
      thresh= 2.162E-07 alpha_mix =  0.700 |ddv_scf|^2 =  2.113E-13

      iter #   6 total cpu time :    53.1 secs   av.it.:  17.6
      thresh= 4.596E-08 alpha_mix =  0.700 |ddv_scf|^2 =  1.442E-14

      iter #   7 total cpu time :    60.7 secs   av.it.:  16.3
      thresh= 1.201E-08 alpha_mix =  0.700 |ddv_scf|^2 =  9.465E-16

      iter #   8 total cpu time :    68.1 secs   av.it.:  16.3
      thresh= 3.077E-09 alpha_mix =  0.700 |ddv_scf|^2 =  1.678E-17

     End of self-consistent calculation

     Convergence has been achieved 


     Representation #   2 modes #   4   5   6

     Self-consistent Calculation

      iter #   1 total cpu time :    74.4 secs   av.it.:   7.8
      thresh= 1.000E-02 alpha_mix =  0.700 |ddv_scf|^2 =  4.361E-07

      iter #   2 total cpu time :    82.5 secs   av.it.:  17.7
      thresh= 6.604E-05 alpha_mix =  0.700 |ddv_scf|^2 =  6.959E-07

      iter #   3 total cpu time :    90.2 secs   av.it.:  16.5
      thresh= 8.342E-05 alpha_mix =  0.700 |ddv_scf|^2 =  1.600E-09

      iter #   4 total cpu time :    98.2 secs   av.it.:  17.6
      thresh= 4.000E-06 alpha_mix =  0.700 |ddv_scf|^2 =  2.259E-11

      iter #   5 total cpu time :   106.2 secs   av.it.:  17.3
      thresh= 4.752E-07 alpha_mix =  0.700 |ddv_scf|^2 =  1.767E-12

      iter #   6 total cpu time :   114.2 secs   av.it.:  17.4
      thresh= 1.329E-07 alpha_mix =  0.700 |ddv_scf|^2 =  1.399E-13

      iter #   7 total cpu time :   121.9 secs   av.it.:  16.4
      thresh= 3.740E-08 alpha_mix =  0.700 |ddv_scf|^2 =  2.510E-15

      iter #   8 total cpu time :   129.9 secs   av.it.:  17.2
      thresh= 5.010E-09 alpha_mix =  0.700 |ddv_scf|^2 =  2.558E-16

      iter #   9 total cpu time :   137.6 secs   av.it.:  16.7
      thresh= 1.599E-09 alpha_mix =  0.700 |ddv_scf|^2 =  9.232E-18

     End of self-consistent calculation

     Convergence has been achieved 


     Representation #   3 modes #   7   8   9

     Self-consistent Calculation

      iter #   1 total cpu time :   143.0 secs   av.it.:   4.1
      thresh= 1.000E-02 alpha_mix =  0.700 |ddv_scf|^2 =  3.426E-08

      iter #   2 total cpu time :   150.8 secs   av.it.:  16.9
      thresh= 1.851E-05 alpha_mix =  0.700 |ddv_scf|^2 =  2.051E-08

      iter #   3 total cpu time :   158.6 secs   av.it.:  16.9
      thresh= 1.432E-05 alpha_mix =  0.700 |ddv_scf|^2 =  7.182E-10

      iter #   4 total cpu time :   166.4 secs   av.it.:  17.1
      thresh= 2.680E-06 alpha_mix =  0.700 |ddv_scf|^2 =  1.509E-11

      iter #   5 total cpu time :   174.4 secs   av.it.:  17.4
      thresh= 3.885E-07 alpha_mix =  0.700 |ddv_scf|^2 =  7.173E-13

      iter #   6 total cpu time :   182.4 secs   av.it.:  17.5
      thresh= 8.470E-08 alpha_mix =  0.700 |ddv_scf|^2 =  1.846E-14

      iter #   7 total cpu time :   190.2 secs   av.it.:  16.4
      thresh= 1.359E-08 alpha_mix =  0.700 |ddv_scf|^2 =  1.232E-15

      iter #   8 total cpu time :   197.8 secs   av.it.:  16.3
      thresh= 3.509E-09 alpha_mix =  0.700 |ddv_scf|^2 =  3.239E-17

     End of self-consistent calculation

     Convergence has been achieved 


     Representation #   4 modes #  10  11  12

     Self-consistent Calculation

      iter #   1 total cpu time :   204.1 secs   av.it.:   6.0
      thresh= 1.000E-02 alpha_mix =  0.700 |ddv_scf|^2 =  4.322E-08

      iter #   2 total cpu time :   212.1 secs   av.it.:  17.6
      thresh= 2.079E-05 alpha_mix =  0.700 |ddv_scf|^2 =  5.228E-08

      iter #   3 total cpu time :   219.9 secs   av.it.:  16.6
      thresh= 2.286E-05 alpha_mix =  0.700 |ddv_scf|^2 =  9.038E-11

      iter #   4 total cpu time :   227.8 secs   av.it.:  17.1
      thresh= 9.507E-07 alpha_mix =  0.700 |ddv_scf|^2 =  1.184E-12

      iter #   5 total cpu time :   235.7 secs   av.it.:  17.0
      thresh= 1.088E-07 alpha_mix =  0.700 |ddv_scf|^2 =  5.257E-14

      iter #   6 total cpu time :   243.8 secs   av.it.:  17.8
      thresh= 2.293E-08 alpha_mix =  0.700 |ddv_scf|^2 =  1.135E-14

      iter #   7 total cpu time :   251.7 secs   av.it.:  16.9
      thresh= 1.065E-08 alpha_mix =  0.700 |ddv_scf|^2 =  3.231E-16

      iter #   8 total cpu time :   259.4 secs   av.it.:  16.8
      thresh= 1.798E-09 alpha_mix =  0.700 |ddv_scf|^2 =  1.339E-17

     End of self-consistent calculation

     Convergence has been achieved 


     Representation #   5 modes #  13  14  15

     Self-consistent Calculation

      iter #   1 total cpu time :   265.2 secs   av.it.:   5.0
      thresh= 1.000E-02 alpha_mix =  0.700 |ddv_scf|^2 =  7.154E-09

      iter #   2 total cpu time :   272.8 secs   av.it.:  15.9
      thresh= 8.458E-06 alpha_mix =  0.700 |ddv_scf|^2 =  8.364E-10

      iter #   3 total cpu time :   280.5 secs   av.it.:  16.4
      thresh= 2.892E-06 alpha_mix =  0.700 |ddv_scf|^2 =  6.576E-12

      iter #   4 total cpu time :   288.2 secs   av.it.:  15.9
      thresh= 2.564E-07 alpha_mix =  0.700 |ddv_scf|^2 =  7.277E-14

      iter #   5 total cpu time :   295.7 secs   av.it.:  15.5
      thresh= 2.698E-08 alpha_mix =  0.700 |ddv_scf|^2 =  4.931E-16

      iter #   6 total cpu time :   303.3 secs   av.it.:  16.6
      thresh= 2.221E-09 alpha_mix =  0.700 |ddv_scf|^2 =  9.605E-18

     End of self-consistent calculation

     Convergence has been achieved 
 
     Number of q in the star =    1
     List of q in the star:
          1   0.000000000   0.000000000   0.000000000

     Diagonalizing the dynamical matrix

     q = (    0.000000000   0.000000000   0.000000000 ) 

 **************************************************************************
     freq (    1) =      -0.154653 [THz] =      -5.158658 [cm-1]
     freq (    2) =      -0.154653 [THz] =      -5.158658 [cm-1]
     freq (    3) =      -0.154653 [THz] =      -5.158658 [cm-1]
     freq (    4) =       0.242573 [THz] =       8.091352 [cm-1]
     freq (    5) =       0.242573 [THz] =       8.091352 [cm-1]
     freq (    6) =       0.242573 [THz] =       8.091352 [cm-1]
     freq (    7) =       0.693998 [THz] =      23.149277 [cm-1]
     freq (    8) =       0.693998 [THz] =      23.149277 [cm-1]
     freq (    9) =       0.693998 [THz] =      23.149277 [cm-1]
     freq (   10) =       1.159416 [THz] =      38.673946 [cm-1]
     freq (   11) =       1.159416 [THz] =      38.673946 [cm-1]
     freq (   12) =       1.159416 [THz] =      38.673946 [cm-1]
     freq (   13) =       2.344153 [THz] =      78.192524 [cm-1]
     freq (   14) =       2.344153 [THz] =      78.192524 [cm-1]
     freq (   15) =       2.344153 [THz] =      78.192524 [cm-1]
 **************************************************************************

     Mode symmetry, O_h (m-3m)  point group:

     freq (   1-   3) =         -5.2  [cm-1]   --> T_1u G_15  G_4- I  
     freq (   4-   6) =          8.1  [cm-1]   --> T_1u G_15  G_4- I  
     freq (   7-   9) =         23.1  [cm-1]   --> T_2u G_25  G_5-    
     freq (  10-  12) =         38.7  [cm-1]   --> T_1u G_15  G_4- I  
     freq (  13-  15) =         78.2  [cm-1]   --> T_1u G_15  G_4- I  
 
     PHONON       :   5m26.65s CPU   5m 4.15s WALL

     INITIALIZATION: 
     phq_setup    :      0.01s CPU      0.02s WALL (       1 calls)
     phq_init     :      8.71s CPU      6.53s WALL (       1 calls)
 
     phq_init     :      8.71s CPU      6.53s WALL (       1 calls)
     set_drhoc    :      3.34s CPU      3.35s WALL (       3 calls)
     init_vloc    :      0.01s CPU      0.01s WALL (       1 calls)
     init_us_1    :      0.02s CPU      0.02s WALL (       1 calls)
     init_us_2    :      1.25s CPU      1.30s WALL (    1020 calls)
 
     DYNAMICAL MATRIX:
     dynmat0      :      6.12s CPU      3.59s WALL (       1 calls)
     dynmat_us    :      3.68s CPU      1.29s WALL (       1 calls)
     d2ionq       :      0.16s CPU      0.02s WALL (       1 calls)
     dynmatcc     :      2.28s CPU      2.28s WALL (       1 calls)
     phqscf       :    317.29s CPU    296.44s WALL (       1 calls)
     dynmatrix    :      0.01s CPU      0.02s WALL (       1 calls)
 
     phqscf       :    317.29s CPU    296.44s WALL (       1 calls)
     solve_linter :    315.78s CPU    295.16s WALL (       5 calls)
     sth_kernel   :    231.53s CPU    239.51s WALL (      39 calls)
     h_prec       :     10.36s CPU      1.49s WALL (     780 calls)
     apply_dpot_b :     11.29s CPU     11.71s WALL (    2040 calls)
     ortho        :      8.11s CPU      8.21s WALL (    2340 calls)
     cgsolve      :    184.18s CPU    187.01s WALL (    2340 calls)
     incdrhoscf   :     10.81s CPU     11.27s WALL (    2340 calls)
                                       11.25s GPU  (    2340 calls)
     dv_of_drho   :     13.86s CPU      5.84s WALL (     117 calls)
     mix_pot      :      1.85s CPU      3.26s WALL (      39 calls)
     drhodv       :      1.51s CPU      1.17s WALL (       5 calls)
     psymdvscf    :     35.76s CPU     36.19s WALL (      39 calls)
 
     dvqpsi_us    :     25.24s CPU      5.49s WALL (     300 calls)
                                        5.49s GPU  (     300 calls)
     dvqpsi_us_on :     23.36s CPU      3.57s WALL (     300 calls)
 
     add_vuspsi   :      5.63s CPU      8.03s WALL (   48452 calls)
                                        7.71s GPU  (   48452 calls)
 
 
      General routines
     calbec       :      3.20s CPU      2.22s WALL (   98304 calls)
     fft          :      8.86s CPU      1.64s WALL (    1787 calls)
                                        0.02s GPU  (      21 calls)
     ffts         :      0.27s CPU      0.05s WALL (     375 calls)
                                        0.01s GPU  (     300 calls)
     fftw         :      2.61s CPU     63.12s WALL (  365238 calls)
                                       60.87s GPU  (  365238 calls)
     davcio       :      2.96s CPU     15.20s WALL (    8558 calls)
     write_rec    :      0.01s CPU      0.73s WALL (      44 calls)
 
      Additional routines
     ch_psi       :    111.80s CPU    112.52s WALL (   48452 calls)
     last         :     12.50s CPU     12.57s WALL (   48452 calls)
     Hesh         :      0.75s CPU      0.77s WALL (   48452 calls)
     ch_psi_all_k :     11.04s CPU     11.44s WALL (   48452 calls)
                                       11.14s GPU  (   48452 calls)
     ch_psi_calbe :      0.54s CPU      3.28s WALL (   48452 calls)
                                        2.98s GPU  (   48452 calls)
     h_psi_bgrp   :     95.37s CPU     96.64s WALL (   48452 calls)
                                       96.36s GPU  (   48452 calls)
     h_psi        :     94.86s CPU     96.13s WALL (   48452 calls)
                                       95.81s GPU  (   48452 calls)
     h_psi:pot    :     93.29s CPU     94.54s WALL (   48452 calls)
                                       94.24s GPU  (   48452 calls)
     h_psi:calbec :      1.13s CPU      4.00s WALL (   48452 calls)
                                        3.70s GPU  (   48452 calls)
     s_psi_bgrp   :      0.37s CPU      1.82s WALL (   99244 calls)
                                        1.19s GPU  (   99244 calls)
 
 
     PHONON       :   5m26.65s CPU   5m 4.15s WALL

 
   This run was terminated on:  17:37:50  18Feb2024            

=------------------------------------------------------------------------------=
   JOB DONE.
=------------------------------------------------------------------------------=
